REMARK  Name = 
REMARK  6 active torsions:
REMARK  status: ('A' for Active; 'I' for Inactive)
REMARK    1  A    between atoms: C_1  and  C_2
REMARK    2  A    between atoms: C_6  and  N_7
REMARK    3  A    between atoms: N_7  and  C_8
REMARK    4  A    between atoms: C_13  and  C_14
REMARK    5  A    between atoms: C_14  and  O_16
REMARK    6  A    between atoms: C_17  and  C_18
REMARK                            x       y       z     vdW  Elec       q    Type
REMARK                         _______ _______ _______ _____ _____    ______ ____
ROOT
ATOM      1  N   UNL     1      -0.602  -2.839  -0.019  0.00  0.00    +0.000 N 
ATOM      2  H   UNL     1      -1.482  -3.354  -0.030  0.00  0.00    +0.000 HD
ENDROOT
BRANCH   1   8
ATOM      3  C   UNL     1       1.854   1.500  -0.022  0.00  0.00    +0.000 C 
ATOM      4  C   UNL     1       0.576   0.705  -0.010  0.00  0.00    +0.000 A 
ATOM      5  C   UNL     1      -0.643   1.368   0.021  0.00  0.00    +0.000 A 
ATOM      6  C   UNL     1      -1.839   0.673   0.023  0.00  0.00    +0.000 A 
ATOM      7  C   UNL     1      -1.822  -0.710  -0.023  0.00  0.00    +0.000 A 
ATOM      8  C   UNL     1      -0.611  -1.369  -0.014  0.00  0.00    +0.000 A 
ATOM      9  C   UNL     1       0.595  -0.694   0.000  0.00  0.00    +0.000 A 
ATOM     10  C   UNL     1       1.891  -1.474   0.027  0.00  0.00    +0.000 C 
ENDBRANCH   1   8
BRANCH   1  11
ATOM     11  C   UNL     1       0.675  -3.566  -0.010  0.00  0.00    +0.000 A 
ATOM     12  C   UNL     1       0.981  -4.424  -1.054  0.00  0.00    +0.000 A 
ATOM     13  C   UNL     1       2.082  -5.274  -0.794  0.00  0.00    +0.000 A 
ATOM     14  C   UNL     1       2.976  -5.072   0.156  0.00  0.00    +0.000 A 
ATOM     15  C   UNL     1       2.643  -4.162   1.121  0.00  0.00    +0.000 A 
ATOM     16  C   UNL     1       1.515  -3.387   1.003  0.00  0.00    +0.000 A 
BRANCH  16  17
ATOM     17  C   UNL     1       1.226  -2.314   2.040  0.00  0.00    +0.000 C 
ATOM     18  O   UNL     1       2.026  -2.137   3.011  0.00  0.00    +0.000 OA
BRANCH  17  19
ATOM     19  O   UNL     1       0.062  -1.509   1.923  0.00  0.00    +0.000 OA
ATOM     20  H   UNL     1      -0.128  -0.803   2.606  0.00  0.00    +0.000 HD
ENDBRANCH  17  19
ENDBRANCH  16  17
ENDBRANCH   1  11
TORSDOF 4
