REMARK  Name = 
REMARK  5 active torsions:
REMARK  status: ('A' for Active; 'I' for Inactive)
REMARK    1  A    between atoms: C_1  and  C_2
REMARK    2  A    between atoms: C_2  and  C_3
REMARK    3  A    between atoms: C_2  and  C_6
REMARK    4  A    between atoms: C_3  and  O_5
REMARK    5  A    between atoms: C_9  and  C_10
REMARK                            x       y       z     vdW  Elec       q    Type
REMARK                         _______ _______ _______ _____ _____    ______ ____
ROOT
ATOM      1  C   UNL     1      -1.094   0.417  -1.296  0.00  0.00    +0.000 A 
ATOM      2  C   UNL     1      -1.770  -0.768  -1.298  0.00  0.00    +0.000 A 
ATOM      3  C   UNL     1      -3.157  -0.748  -1.309  0.00  0.00    +0.000 A 
ATOM      4  C   UNL     1      -3.848   0.454  -1.328  0.00  0.00    +0.000 A 
ATOM      5  C   UNL     1      -3.134   1.593  -1.310  0.00  0.00    +0.000 A 
ATOM      6  F   UNL     1      -3.805   2.772  -1.325  0.00  0.00    +0.000 F 
ATOM      7  C   UNL     1      -1.781   1.621  -1.294  0.00  0.00    +0.000 A 
ENDROOT
BRANCH   4   8
ATOM      8  C   UNL     1      -5.367   0.482  -1.370  0.00  0.00    +0.000 A 
ATOM      9  C   UNL     1      -6.086  -0.107  -0.344  0.00  0.00    +0.000 A 
ATOM     10  C   UNL     1      -7.461  -0.276  -0.631  0.00  0.00    +0.000 A 
ATOM     11  C   UNL     1      -8.110   0.361  -1.588  0.00  0.00    +0.000 A 
ATOM     12  C   UNL     1      -7.343   0.981  -2.534  0.00  0.00    +0.000 A 
ATOM     13  C   UNL     1      -5.979   1.073  -2.390  0.00  0.00    +0.000 A 
ENDBRANCH   4   8
BRANCH   1  15
ATOM     14  C   UNL     1       0.932  -0.004   0.074  0.00  0.00    +0.000 C 
ATOM     15  C   UNL     1       0.426   0.417  -1.296  0.00  0.00    +0.000 C 
BRANCH  15  16
ATOM     16  C   UNL     1       0.932  -0.558  -2.346  0.00  0.00    +0.000 C 
ATOM     17  O   UNL     1       0.107  -1.216  -3.053  0.00  0.00    +0.000 OA
BRANCH  16  18
ATOM     18  O   UNL     1       2.329  -0.735  -2.536  0.00  0.00    +0.000 OA
ATOM     19  H   UNL     1       2.662  -1.377  -3.226  0.00  0.00    +0.000 HD
ENDBRANCH  16  18
ENDBRANCH  15  16
ENDBRANCH   1  15
TORSDOF 4
