MODEL 1
REMARK VINA RESULT:    -6.757      0.000      0.000
REMARK INTER + INTRA:          -9.193
REMARK INTER:                  -8.428
REMARK INTRA:                  -0.765
REMARK UNBOUND:                -0.658
REMARK  Name = 
REMARK  6 active torsions:
REMARK  status: ('A' for Active; 'I' for Inactive)
REMARK    1  A    between atoms: C_1  and  O_2
REMARK    2  A    between atoms: O_2  and  C_3
REMARK    3  A    between atoms: C_6  and  C_7
REMARK    4  A    between atoms: C_7  and  C_9
REMARK    5  A    between atoms: C_10  and  C_11
REMARK    6  A    between atoms: C_17  and  O_18
REMARK                            x       y       z     vdW  Elec       q    Type
REMARK                         _______ _______ _______ _____ _____    ______ ____
ROOT
ATOM      1  C   UNL     1      14.863 -23.095 -19.849  0.00  0.00    +0.000 A 
ATOM      2  C   UNL     1      13.900 -24.076 -19.840  0.00  0.00    +0.000 A 
ATOM      3  C   UNL     1      12.573 -23.746 -20.037  0.00  0.00    +0.000 A 
ATOM      4  C   UNL     1      12.211 -22.439 -20.261  0.00  0.00    +0.000 A 
ATOM      5  C   UNL     1      13.170 -21.452 -20.303  0.00  0.00    +0.000 A 
ATOM      6  C   UNL     1      14.523 -21.751 -20.107  0.00  0.00    +0.000 A 
ENDROOT
BRANCH   1   8
ATOM      7  C   UNL     1      17.215 -22.675 -20.103  0.00  0.00    +0.000 C 
ATOM      8  O   UNL     1      16.142 -23.474 -19.624  0.00  0.00    +0.000 OA
ENDBRANCH   1   8
BRANCH   4   9
ATOM      9  C   UNL     1      10.747 -22.084 -20.465  0.00  0.00    +0.000 C 
ATOM     10  O   UNL     1      10.345 -21.671 -21.597  0.00  0.00    +0.000 OA
BRANCH   9  11
ATOM     11  C   UNL     1       9.764 -22.225 -19.314  0.00  0.00    +0.000 C 
ATOM     12  C   UNL     1       9.664 -21.240 -18.381  0.00  0.00    +0.000 C 
BRANCH  12  13
ATOM     13  C   UNL     1       8.680 -21.381 -17.231  0.00  0.00    +0.000 A 
ATOM     14  C   UNL     1       8.874 -22.435 -16.353  0.00  0.00    +0.000 A 
ATOM     15  C   UNL     1       7.780 -22.667 -15.485  0.00  0.00    +0.000 A 
ATOM     16  C   UNL     1       6.820 -21.794 -15.241  0.00  0.00    +0.000 A 
ATOM     17  C   UNL     1       6.723 -20.738 -16.105  0.00  0.00    +0.000 A 
ATOM     18  C   UNL     1       7.683 -20.520 -17.064  0.00  0.00    +0.000 A 
ENDBRANCH  12  13
ENDBRANCH   9  11
ENDBRANCH   4   9
BRANCH   5  19
ATOM     19  O   UNL     1      12.780 -20.109 -20.548  0.00  0.00    +0.000 OA
ATOM     20  H   UNL     1      12.304 -19.873 -21.394  0.00  0.00    +0.000 HD
ENDBRANCH   5  19
TORSDOF 5
ENDMDL
MODEL 2
REMARK VINA RESULT:    -6.679      5.462     11.203
REMARK INTER + INTRA:          -9.094
REMARK INTER:                  -8.342
REMARK INTRA:                  -0.752
REMARK UNBOUND:                -0.658
REMARK  Name = 
REMARK  6 active torsions:
REMARK  status: ('A' for Active; 'I' for Inactive)
REMARK    1  A    between atoms: C_1  and  O_2
REMARK    2  A    between atoms: O_2  and  C_3
REMARK    3  A    between atoms: C_6  and  C_7
REMARK    4  A    between atoms: C_7  and  C_9
REMARK    5  A    between atoms: C_10  and  C_11
REMARK    6  A    between atoms: C_17  and  O_18
REMARK                            x       y       z     vdW  Elec       q    Type
REMARK                         _______ _______ _______ _____ _____    ______ ____
ROOT
ATOM      1  C   UNL     1      14.871 -22.598 -22.837  0.00  0.00    +0.000 A 
ATOM      2  C   UNL     1      15.263 -23.338 -23.927  0.00  0.00    +0.000 A 
ATOM      3  C   UNL     1      16.594 -23.663 -24.100  0.00  0.00    +0.000 A 
ATOM      4  C   UNL     1      17.531 -23.264 -23.177  0.00  0.00    +0.000 A 
ATOM      5  C   UNL     1      17.145 -22.548 -22.066  0.00  0.00    +0.000 A 
ATOM      6  C   UNL     1      15.806 -22.202 -21.858  0.00  0.00    +0.000 A 
ENDROOT
BRANCH   1   8
ATOM      7  C   UNL     1      12.829 -22.661 -21.573  0.00  0.00    +0.000 C 
ATOM      8  O   UNL     1      13.559 -22.287 -22.733  0.00  0.00    +0.000 OA
ENDBRANCH   1   8
BRANCH   4   9
ATOM      9  C   UNL     1      18.995 -23.616 -23.383  0.00  0.00    +0.000 C 
ATOM     10  O   UNL     1      19.514 -24.581 -22.739  0.00  0.00    +0.000 OA
BRANCH   9  11
ATOM     11  C   UNL     1      19.839 -22.814 -24.360  0.00  0.00    +0.000 C 
ATOM     12  C   UNL     1      19.424 -21.584 -24.768  0.00  0.00    +0.000 C 
BRANCH  12  13
ATOM     13  C   UNL     1      20.268 -20.783 -25.745  0.00  0.00    +0.000 A 
ATOM     14  C   UNL     1      19.966 -19.439 -25.894  0.00  0.00    +0.000 A 
ATOM     15  C   UNL     1      20.598 -18.829 -27.005  0.00  0.00    +0.000 A 
ATOM     16  C   UNL     1      21.642 -19.329 -27.640  0.00  0.00    +0.000 A 
ATOM     17  C   UNL     1      21.929 -20.644 -27.399  0.00  0.00    +0.000 A 
ATOM     18  C   UNL     1      21.264 -21.344 -26.420  0.00  0.00    +0.000 A 
ENDBRANCH  12  13
ENDBRANCH   9  11
ENDBRANCH   4   9
BRANCH   5  19
ATOM     19  O   UNL     1      18.124 -22.153 -21.114  0.00  0.00    +0.000 OA
ATOM     20  H   UNL     1      18.111 -21.227 -20.739  0.00  0.00    +0.000 HD
ENDBRANCH   5  19
TORSDOF 5
ENDMDL
MODEL 3
REMARK VINA RESULT:    -6.594      2.914      7.997
REMARK INTER + INTRA:          -8.987
REMARK INTER:                  -8.377
REMARK INTRA:                  -0.610
REMARK UNBOUND:                -0.658
REMARK  Name = 
REMARK  6 active torsions:
REMARK  status: ('A' for Active; 'I' for Inactive)
REMARK    1  A    between atoms: C_1  and  O_2
REMARK    2  A    between atoms: O_2  and  C_3
REMARK    3  A    between atoms: C_6  and  C_7
REMARK    4  A    between atoms: C_7  and  C_9
REMARK    5  A    between atoms: C_10  and  C_11
REMARK    6  A    between atoms: C_17  and  O_18
REMARK                            x       y       z     vdW  Elec       q    Type
REMARK                         _______ _______ _______ _____ _____    ______ ____
ROOT
ATOM      1  C   UNL     1      10.927 -22.623 -18.451  0.00  0.00    +0.000 A 
ATOM      2  C   UNL     1      11.846 -23.558 -18.036  0.00  0.00    +0.000 A 
ATOM      3  C   UNL     1      13.180 -23.408 -18.361  0.00  0.00    +0.000 A 
ATOM      4  C   UNL     1      13.599 -22.317 -19.084  0.00  0.00    +0.000 A 
ATOM      5  C   UNL     1      12.692 -21.359 -19.479  0.00  0.00    +0.000 A 
ATOM      6  C   UNL     1      11.334 -21.479 -19.168  0.00  0.00    +0.000 A 
ENDROOT
BRANCH   1   8
ATOM      7  C   UNL     1       9.285 -23.881 -17.228  0.00  0.00    +0.000 C 
ATOM      8  O   UNL     1       9.631 -22.836 -18.127  0.00  0.00    +0.000 OA
ENDBRANCH   1   8
BRANCH   4   9
ATOM      9  C   UNL     1      15.068 -22.167 -19.447  0.00  0.00    +0.000 C 
ATOM     10  O   UNL     1      15.853 -21.537 -18.671  0.00  0.00    +0.000 OA
BRANCH   9  11
ATOM     11  C   UNL     1      15.597 -22.772 -20.737  0.00  0.00    +0.000 C 
ATOM     12  C   UNL     1      15.657 -22.018 -21.868  0.00  0.00    +0.000 C 
BRANCH  12  13
ATOM     13  C   UNL     1      16.186 -22.624 -23.157  0.00  0.00    +0.000 A 
ATOM     14  C   UNL     1      15.368 -23.522 -23.822  0.00  0.00    +0.000 A 
ATOM     15  C   UNL     1      16.024 -24.246 -24.847  0.00  0.00    +0.000 A 
ATOM     16  C   UNL     1      17.172 -23.893 -25.396  0.00  0.00    +0.000 A 
ATOM     17  C   UNL     1      17.903 -22.952 -24.725  0.00  0.00    +0.000 A 
ATOM     18  C   UNL     1      17.381 -22.296 -23.636  0.00  0.00    +0.000 A 
ENDBRANCH  12  13
ENDBRANCH   9  11
ENDBRANCH   4   9
BRANCH   5  19
ATOM     19  O   UNL     1      13.143 -20.231 -20.216  0.00  0.00    +0.000 OA
ATOM     20  H   UNL     1      14.094 -19.933 -20.140  0.00  0.00    +0.000 HD
ENDBRANCH   5  19
TORSDOF 5
ENDMDL
MODEL 4
REMARK VINA RESULT:    -6.486      3.953      6.706
REMARK INTER + INTRA:          -8.851
REMARK INTER:                  -8.371
REMARK INTRA:                  -0.480
REMARK UNBOUND:                -0.658
REMARK  Name = 
REMARK  6 active torsions:
REMARK  status: ('A' for Active; 'I' for Inactive)
REMARK    1  A    between atoms: C_1  and  O_2
REMARK    2  A    between atoms: O_2  and  C_3
REMARK    3  A    between atoms: C_6  and  C_7
REMARK    4  A    between atoms: C_7  and  C_9
REMARK    5  A    between atoms: C_10  and  C_11
REMARK    6  A    between atoms: C_17  and  O_18
REMARK                            x       y       z     vdW  Elec       q    Type
REMARK                         _______ _______ _______ _____ _____    ______ ____
ROOT
ATOM      1  C   UNL     1      19.422 -22.781 -24.427  0.00  0.00    +0.000 A 
ATOM      2  C   UNL     1      18.136 -22.375 -24.162  0.00  0.00    +0.000 A 
ATOM      3  C   UNL     1      17.669 -22.359 -22.862  0.00  0.00    +0.000 A 
ATOM      4  C   UNL     1      18.491 -22.731 -21.826  0.00  0.00    +0.000 A 
ATOM      5  C   UNL     1      19.792 -23.110 -22.077  0.00  0.00    +0.000 A 
ATOM      6  C   UNL     1      20.297 -23.138 -23.380  0.00  0.00    +0.000 A 
ENDROOT
BRANCH   1   8
ATOM      7  C   UNL     1      18.939 -22.336 -26.738  0.00  0.00    +0.000 C 
ATOM      8  O   UNL     1      19.815 -22.802 -25.721  0.00  0.00    +0.000 OA
ENDBRANCH   1   8
BRANCH   4   9
ATOM      9  C   UNL     1      17.965 -22.721 -20.400  0.00  0.00    +0.000 C 
ATOM     10  O   UNL     1      18.775 -22.660 -19.423  0.00  0.00    +0.000 OA
BRANCH   9  11
ATOM     11  C   UNL     1      16.468 -22.784 -20.143  0.00  0.00    +0.000 C 
ATOM     12  C   UNL     1      15.905 -21.980 -19.200  0.00  0.00    +0.000 C 
BRANCH  12  13
ATOM     13  C   UNL     1      14.408 -22.044 -18.944  0.00  0.00    +0.000 A 
ATOM     14  C   UNL     1      13.935 -23.108 -18.193  0.00  0.00    +0.000 A 
ATOM     15  C   UNL     1      12.527 -23.253 -18.229  0.00  0.00    +0.000 A 
ATOM     16  C   UNL     1      11.686 -22.309 -18.609  0.00  0.00    +0.000 A 
ATOM     17  C   UNL     1      12.226 -21.250 -19.287  0.00  0.00    +0.000 A 
ATOM     18  C   UNL     1      13.587 -21.109 -19.408  0.00  0.00    +0.000 A 
ENDBRANCH  12  13
ENDBRANCH   9  11
ENDBRANCH   4   9
BRANCH   5  19
ATOM     19  O   UNL     1      20.633 -23.479 -20.993  0.00  0.00    +0.000 OA
ATOM     20  H   UNL     1      20.261 -24.006 -20.229  0.00  0.00    +0.000 HD
ENDBRANCH   5  19
TORSDOF 5
ENDMDL
MODEL 5
REMARK VINA RESULT:    -6.432      2.452      8.510
REMARK INTER + INTRA:          -8.782
REMARK INTER:                  -8.124
REMARK INTRA:                  -0.658
REMARK UNBOUND:                -0.658
REMARK  Name = 
REMARK  6 active torsions:
REMARK  status: ('A' for Active; 'I' for Inactive)
REMARK    1  A    between atoms: C_1  and  O_2
REMARK    2  A    between atoms: O_2  and  C_3
REMARK    3  A    between atoms: C_6  and  C_7
REMARK    4  A    between atoms: C_7  and  C_9
REMARK    5  A    between atoms: C_10  and  C_11
REMARK    6  A    between atoms: C_17  and  O_18
REMARK                            x       y       z     vdW  Elec       q    Type
REMARK                         _______ _______ _______ _____ _____    ______ ____
ROOT
ATOM      1  C   UNL     1      10.684 -22.036 -19.694  0.00  0.00    +0.000 A 
ATOM      2  C   UNL     1      11.525 -21.208 -20.399  0.00  0.00    +0.000 A 
ATOM      3  C   UNL     1      12.887 -21.247 -20.171  0.00  0.00    +0.000 A 
ATOM      4  C   UNL     1      13.410 -22.125 -19.252  0.00  0.00    +0.000 A 
ATOM      5  C   UNL     1      12.580 -22.980 -18.562  0.00  0.00    +0.000 A 
ATOM      6  C   UNL     1      11.197 -22.967 -18.768  0.00  0.00    +0.000 A 
ENDROOT
BRANCH   1   8
ATOM      7  C   UNL     1       8.586 -20.944 -19.277  0.00  0.00    +0.000 C 
ATOM      8  O   UNL     1       9.358 -21.934 -19.941  0.00  0.00    +0.000 OA
ENDBRANCH   1   8
BRANCH   4   9
ATOM      9  C   UNL     1      14.909 -22.152 -18.999  0.00  0.00    +0.000 C 
ATOM     10  O   UNL     1      15.360 -21.952 -17.828  0.00  0.00    +0.000 OA
BRANCH   9  11
ATOM     11  C   UNL     1      15.868 -22.422 -20.147  0.00  0.00    +0.000 C 
ATOM     12  C   UNL     1      17.198 -22.575 -19.902  0.00  0.00    +0.000 C 
BRANCH  12  13
ATOM     13  C   UNL     1      18.156 -22.845 -21.050  0.00  0.00    +0.000 A 
ATOM     14  C   UNL     1      19.430 -23.281 -20.728  0.00  0.00    +0.000 A 
ATOM     15  C   UNL     1      20.340 -23.245 -21.811  0.00  0.00    +0.000 A 
ATOM     16  C   UNL     1      19.990 -23.167 -23.082  0.00  0.00    +0.000 A 
ATOM     17  C   UNL     1      18.697 -22.796 -23.334  0.00  0.00    +0.000 A 
ATOM     18  C   UNL     1      17.783 -22.682 -22.315  0.00  0.00    +0.000 A 
ENDBRANCH  12  13
ENDBRANCH   9  11
ENDBRANCH   4   9
BRANCH   5  19
ATOM     19  O   UNL     1      13.138 -23.890 -17.624  0.00  0.00    +0.000 OA
ATOM     20  H   UNL     1      13.484 -24.776 -17.932  0.00  0.00    +0.000 HD
ENDBRANCH   5  19
TORSDOF 5
ENDMDL
