MODEL 1
REMARK VINA RESULT:    -7.154      0.000      0.000
REMARK INTER + INTRA:          -8.375
REMARK INTER:                  -8.003
REMARK INTRA:                  -0.372
REMARK UNBOUND:                -0.384
REMARK  Name = 
REMARK  3 active torsions:
REMARK  status: ('A' for Active; 'I' for Inactive)
REMARK    1  A    between atoms: C_1  and  O_2
REMARK    2  A    between atoms: O_2  and  C_3
REMARK    3  A    between atoms: C_12  and  C_14
REMARK                            x       y       z     vdW  Elec       q    Type
REMARK                         _______ _______ _______ _____ _____    ______ ____
ROOT
ATOM      1  C   UNL     1      19.697 -23.017 -23.873  0.00  0.00    +0.000 A 
ATOM      2  C   UNL     1      20.976 -23.125 -23.371  0.00  0.00    +0.000 A 
ATOM      3  C   UNL     1      21.183 -23.152 -21.998  0.00  0.00    +0.000 A 
ATOM      4  C   UNL     1      20.121 -23.075 -21.117  0.00  0.00    +0.000 A 
ATOM      5  C   UNL     1      18.846 -22.973 -21.648  0.00  0.00    +0.000 A 
ATOM      6  C   UNL     1      18.601 -22.934 -23.006  0.00  0.00    +0.000 A 
ATOM      7  C   UNL     1      17.214 -22.820 -23.526  0.00  0.00    +0.000 A 
ATOM      8  O   UNL     1      17.036 -22.790 -24.746  0.00  0.00    +0.000 OA
ATOM      9  C   UNL     1      16.169 -22.781 -22.523  0.00  0.00    +0.000 A 
ATOM     10  C   UNL     1      16.531 -22.876 -21.162  0.00  0.00    +0.000 A 
ATOM     11  O   UNL     1      17.809 -22.923 -20.733  0.00  0.00    +0.000 OA
ENDROOT
BRANCH  10  12
ATOM     12  C   UNL     1      15.421 -22.930 -20.124  0.00  0.00    +0.000 A 
ATOM     13  C   UNL     1      15.507 -22.132 -18.995  0.00  0.00    +0.000 A 
ATOM     14  C   UNL     1      14.586 -22.477 -17.977  0.00  0.00    +0.000 A 
ATOM     15  C   UNL     1      13.507 -23.215 -18.163  0.00  0.00    +0.000 A 
ATOM     16  C   UNL     1      13.450 -23.926 -19.329  0.00  0.00    +0.000 A 
ATOM     17  C   UNL     1      14.387 -23.741 -20.317  0.00  0.00    +0.000 A 
ENDBRANCH  10  12
BRANCH   1  19
ATOM     18  C   UNL     1      20.314 -22.368 -26.163  0.00  0.00    +0.000 C 
ATOM     19  O   UNL     1      19.469 -23.080 -25.273  0.00  0.00    +0.000 OA
ENDBRANCH   1  19
TORSDOF 2
ENDMDL
MODEL 2
REMARK VINA RESULT:    -7.036      2.207      4.385
REMARK INTER + INTRA:          -8.243
REMARK INTER:                  -7.897
REMARK INTRA:                  -0.347
REMARK UNBOUND:                -0.384
REMARK  Name = 
REMARK  3 active torsions:
REMARK  status: ('A' for Active; 'I' for Inactive)
REMARK    1  A    between atoms: C_1  and  O_2
REMARK    2  A    between atoms: O_2  and  C_3
REMARK    3  A    between atoms: C_12  and  C_14
REMARK                            x       y       z     vdW  Elec       q    Type
REMARK                         _______ _______ _______ _____ _____    ______ ____
ROOT
ATOM      1  C   UNL     1      16.762 -22.766 -22.118  0.00  0.00    +0.000 A 
ATOM      2  C   UNL     1      16.573 -22.988 -23.465  0.00  0.00    +0.000 A 
ATOM      3  C   UNL     1      15.296 -23.228 -23.957  0.00  0.00    +0.000 A 
ATOM      4  C   UNL     1      14.202 -23.245 -23.114  0.00  0.00    +0.000 A 
ATOM      5  C   UNL     1      14.419 -23.013 -21.766  0.00  0.00    +0.000 A 
ATOM      6  C   UNL     1      15.673 -22.780 -21.238  0.00  0.00    +0.000 A 
ATOM      7  C   UNL     1      15.854 -22.540 -19.784  0.00  0.00    +0.000 A 
ATOM      8  O   UNL     1      16.990 -22.334 -19.351  0.00  0.00    +0.000 OA
ATOM      9  C   UNL     1      14.640 -22.544 -18.991  0.00  0.00    +0.000 A 
ATOM     10  C   UNL     1      13.405 -22.745 -19.643  0.00  0.00    +0.000 A 
ATOM     11  O   UNL     1      13.293 -23.014 -20.960  0.00  0.00    +0.000 OA
ENDROOT
BRANCH  10  12
ATOM     12  C   UNL     1      12.132 -22.652 -18.817  0.00  0.00    +0.000 A 
ATOM     13  C   UNL     1      11.769 -23.716 -18.006  0.00  0.00    +0.000 A 
ATOM     14  C   UNL     1      10.441 -23.641 -17.523  0.00  0.00    +0.000 A 
ATOM     15  C   UNL     1       9.711 -22.540 -17.507  0.00  0.00    +0.000 A 
ATOM     16  C   UNL     1      10.159 -21.502 -18.275  0.00  0.00    +0.000 A 
ATOM     17  C   UNL     1      11.389 -21.554 -18.886  0.00  0.00    +0.000 A 
ENDBRANCH  10  12
BRANCH   1  19
ATOM     18  C   UNL     1      19.185 -23.179 -22.026  0.00  0.00    +0.000 C 
ATOM     19  O   UNL     1      18.049 -22.430 -21.620  0.00  0.00    +0.000 OA
ENDBRANCH   1  19
TORSDOF 2
ENDMDL
MODEL 3
REMARK VINA RESULT:    -6.914      1.649      6.373
REMARK INTER + INTRA:          -8.107
REMARK INTER:                  -7.722
REMARK INTRA:                  -0.385
REMARK UNBOUND:                -0.384
REMARK  Name = 
REMARK  3 active torsions:
REMARK  status: ('A' for Active; 'I' for Inactive)
REMARK    1  A    between atoms: C_1  and  O_2
REMARK    2  A    between atoms: O_2  and  C_3
REMARK    3  A    between atoms: C_12  and  C_14
REMARK                            x       y       z     vdW  Elec       q    Type
REMARK                         _______ _______ _______ _____ _____    ______ ____
ROOT
ATOM      1  C   UNL     1      14.397 -23.140 -20.938  0.00  0.00    +0.000 A 
ATOM      2  C   UNL     1      14.513 -22.799 -19.607  0.00  0.00    +0.000 A 
ATOM      3  C   UNL     1      15.749 -22.436 -19.089  0.00  0.00    +0.000 A 
ATOM      4  C   UNL     1      16.875 -22.408 -19.889  0.00  0.00    +0.000 A 
ATOM      5  C   UNL     1      16.730 -22.750 -21.223  0.00  0.00    +0.000 A 
ATOM      6  C   UNL     1      15.520 -23.123 -21.773  0.00  0.00    +0.000 A 
ATOM      7  C   UNL     1      15.417 -23.484 -23.210  0.00  0.00    +0.000 A 
ATOM      8  O   UNL     1      14.318 -23.812 -23.665  0.00  0.00    +0.000 OA
ATOM      9  C   UNL     1      16.647 -23.390 -23.971  0.00  0.00    +0.000 A 
ATOM     10  C   UNL     1      17.817 -22.949 -23.317  0.00  0.00    +0.000 A 
ATOM     11  O   UNL     1      17.877 -22.685 -21.995  0.00  0.00    +0.000 OA
ENDROOT
BRANCH  10  12
ATOM     12  C   UNL     1      19.078 -22.763 -24.146  0.00  0.00    +0.000 A 
ATOM     13  C   UNL     1      18.982 -22.214 -25.415  0.00  0.00    +0.000 A 
ATOM     14  C   UNL     1      20.155 -22.360 -26.192  0.00  0.00    +0.000 A 
ATOM     15  C   UNL     1      21.348 -22.643 -25.702  0.00  0.00    +0.000 A 
ATOM     16  C   UNL     1      21.382 -23.116 -24.419  0.00  0.00    +0.000 A 
ATOM     17  C   UNL     1      20.251 -23.128 -23.640  0.00  0.00    +0.000 A 
ENDBRANCH  10  12
BRANCH   1  19
ATOM     18  C   UNL     1      12.201 -24.238 -20.789  0.00  0.00    +0.000 C 
ATOM     19  O   UNL     1      13.123 -23.423 -21.497  0.00  0.00    +0.000 OA
ENDBRANCH   1  19
TORSDOF 2
ENDMDL
MODEL 4
REMARK VINA RESULT:    -6.814      1.685      3.218
REMARK INTER + INTRA:          -7.995
REMARK INTER:                  -7.623
REMARK INTRA:                  -0.372
REMARK UNBOUND:                -0.384
REMARK  Name = 
REMARK  3 active torsions:
REMARK  status: ('A' for Active; 'I' for Inactive)
REMARK    1  A    between atoms: C_1  and  O_2
REMARK    2  A    between atoms: O_2  and  C_3
REMARK    3  A    between atoms: C_12  and  C_14
REMARK                            x       y       z     vdW  Elec       q    Type
REMARK                         _______ _______ _______ _____ _____    ______ ____
ROOT
ATOM      1  C   UNL     1      18.605 -22.744 -22.289  0.00  0.00    +0.000 A 
ATOM      2  C   UNL     1      18.623 -22.803 -23.666  0.00  0.00    +0.000 A 
ATOM      3  C   UNL     1      17.431 -22.896 -24.372  0.00  0.00    +0.000 A 
ATOM      4  C   UNL     1      16.216 -22.929 -23.715  0.00  0.00    +0.000 A 
ATOM      5  C   UNL     1      16.226 -22.862 -22.331  0.00  0.00    +0.000 A 
ATOM      6  C   UNL     1      17.390 -22.777 -21.594  0.00  0.00    +0.000 A 
ATOM      7  C   UNL     1      17.349 -22.712 -20.111  0.00  0.00    +0.000 A 
ATOM      8  O   UNL     1      18.410 -22.636 -19.488  0.00  0.00    +0.000 OA
ATOM      9  C   UNL     1      16.026 -22.717 -19.520  0.00  0.00    +0.000 A 
ATOM     10  C   UNL     1      14.901 -22.757 -20.372  0.00  0.00    +0.000 A 
ATOM     11  O   UNL     1      14.988 -22.872 -21.713  0.00  0.00    +0.000 OA
ENDROOT
BRANCH  10  12
ATOM     12  C   UNL     1      13.519 -22.665 -19.745  0.00  0.00    +0.000 A 
ATOM     13  C   UNL     1      12.667 -21.641 -20.125  0.00  0.00    +0.000 A 
ATOM     14  C   UNL     1      11.546 -21.484 -19.277  0.00  0.00    +0.000 A 
ATOM     15  C   UNL     1      11.112 -22.400 -18.431  0.00  0.00    +0.000 A 
ATOM     16  C   UNL     1      11.975 -23.423 -18.149  0.00  0.00    +0.000 A 
ATOM     17  C   UNL     1      13.151 -23.568 -18.843  0.00  0.00    +0.000 A 
ENDBRANCH  10  12
BRANCH   1  19
ATOM     18  C   UNL     1      21.006 -23.193 -21.995  0.00  0.00    +0.000 C 
ATOM     19  O   UNL     1      19.812 -22.557 -21.563  0.00  0.00    +0.000 OA
ENDBRANCH   1  19
TORSDOF 2
ENDMDL
MODEL 5
REMARK VINA RESULT:    -6.779      4.987      7.588
REMARK INTER + INTRA:          -7.956
REMARK INTER:                  -7.572
REMARK INTRA:                  -0.384
REMARK UNBOUND:                -0.384
REMARK  Name = 
REMARK  3 active torsions:
REMARK  status: ('A' for Active; 'I' for Inactive)
REMARK    1  A    between atoms: C_1  and  O_2
REMARK    2  A    between atoms: O_2  and  C_3
REMARK    3  A    between atoms: C_12  and  C_14
REMARK                            x       y       z     vdW  Elec       q    Type
REMARK                         _______ _______ _______ _____ _____    ______ ____
ROOT
ATOM      1  C   UNL     1      12.638 -22.702 -21.169  0.00  0.00    +0.000 A 
ATOM      2  C   UNL     1      13.710 -23.474 -20.775  0.00  0.00    +0.000 A 
ATOM      3  C   UNL     1      13.820 -23.888 -19.454  0.00  0.00    +0.000 A 
ATOM      4  C   UNL     1      12.865 -23.539 -18.518  0.00  0.00    +0.000 A 
ATOM      5  C   UNL     1      11.796 -22.768 -18.941  0.00  0.00    +0.000 A 
ATOM      6  C   UNL     1      11.656 -22.331 -20.243  0.00  0.00    +0.000 A 
ATOM      7  C   UNL     1      10.491 -21.501 -20.647  0.00  0.00    +0.000 A 
ATOM      8  O   UNL     1      10.401 -21.131 -21.819  0.00  0.00    +0.000 OA
ATOM      9  C   UNL     1       9.529 -21.220 -19.600  0.00  0.00    +0.000 A 
ATOM     10  C   UNL     1       9.747 -21.759 -18.314  0.00  0.00    +0.000 A 
ATOM     11  O   UNL     1      10.849 -22.462 -17.979  0.00  0.00    +0.000 OA
ENDROOT
BRANCH  10  12
ATOM     12  C   UNL     1       8.684 -21.537 -17.250  0.00  0.00    +0.000 A 
ATOM     13  C   UNL     1       8.595 -22.418 -16.185  0.00  0.00    +0.000 A 
ATOM     14  C   UNL     1       7.404 -22.288 -15.431  0.00  0.00    +0.000 A 
ATOM     15  C   UNL     1       6.610 -21.233 -15.463  0.00  0.00    +0.000 A 
ATOM     16  C   UNL     1       6.793 -20.365 -16.503  0.00  0.00    +0.000 A 
ATOM     17  C   UNL     1       7.858 -20.503 -17.360  0.00  0.00    +0.000 A 
ENDBRANCH  10  12
BRANCH   1  19
ATOM     18  C   UNL     1      13.505 -22.617 -23.469  0.00  0.00    +0.000 C 
ATOM     19  O   UNL     1      12.470 -22.351 -22.534  0.00  0.00    +0.000 OA
ENDBRANCH   1  19
TORSDOF 2
ENDMDL
