MODEL 1
REMARK VINA RESULT:    -7.227      0.000      0.000
REMARK INTER + INTRA:         -10.015
REMARK INTER:                  -9.304
REMARK INTRA:                  -0.711
REMARK UNBOUND:                -0.675
REMARK  Name = 
REMARK  7 active torsions:
REMARK  status: ('A' for Active; 'I' for Inactive)
REMARK    1  A    between atoms: C_1  and  O_2
REMARK    2  A    between atoms: O_2  and  C_3
REMARK    3  A    between atoms: C_6  and  C_7
REMARK    4  A    between atoms: C_8  and  C_9
REMARK    5  A    between atoms: C_9  and  C_11
REMARK    6  A    between atoms: C_14  and  O_15
REMARK    7  A    between atoms: C_17  and  O_18
REMARK                            x       y       z     vdW  Elec       q    Type
REMARK                         _______ _______ _______ _____ _____    ______ ____
ROOT
ATOM      1  C   UNL     1      11.416 -22.663 -19.447  0.00  0.00    +0.000 C 
ATOM      2  O   UNL     1      11.271 -23.580 -20.315  0.00  0.00    +0.000 OA
ENDROOT
BRANCH   1   3
ATOM      3  C   UNL     1      12.806 -22.138 -19.121  0.00  0.00    +0.000 A 
ATOM      4  C   UNL     1      13.208 -20.919 -19.640  0.00  0.00    +0.000 A 
ATOM      5  C   UNL     1      14.596 -20.675 -19.523  0.00  0.00    +0.000 A 
ATOM      6  C   UNL     1      15.404 -21.325 -18.705  0.00  0.00    +0.000 A 
ATOM      7  C   UNL     1      14.923 -22.488 -18.171  0.00  0.00    +0.000 A 
ATOM      8  C   UNL     1      13.613 -22.859 -18.351  0.00  0.00    +0.000 A 
BRANCH   6   9
ATOM      9  O   UNL     1      16.702 -20.840 -18.394  0.00  0.00    +0.000 OA
ATOM     10  H   UNL     1      17.466 -21.027 -19.010  0.00  0.00    +0.000 HD
ENDBRANCH   6   9
BRANCH   8  11
ATOM     11  O   UNL     1      13.115 -24.022 -17.707  0.00  0.00    +0.000 OA
ATOM     12  H   UNL     1      13.202 -24.122 -16.716  0.00  0.00    +0.000 HD
ENDBRANCH   8  11
ENDBRANCH   1   3
BRANCH   1  14
ATOM     13  C   UNL     1       9.866 -22.538 -17.495  0.00  0.00    +0.000 C 
ATOM     14  C   UNL     1      10.202 -22.090 -18.735  0.00  0.00    +0.000 C 
BRANCH  13  18
ATOM     15  C   UNL     1       6.316 -21.062 -15.634  0.00  0.00    +0.000 A 
ATOM     16  C   UNL     1       6.851 -22.261 -15.190  0.00  0.00    +0.000 A 
ATOM     17  C   UNL     1       8.133 -22.545 -15.716  0.00  0.00    +0.000 A 
ATOM     18  C   UNL     1       8.652 -21.965 -16.783  0.00  0.00    +0.000 A 
ATOM     19  C   UNL     1       8.038 -20.822 -17.212  0.00  0.00    +0.000 A 
ATOM     20  C   UNL     1       6.850 -20.408 -16.659  0.00  0.00    +0.000 A 
BRANCH  15  22
ATOM     21  C   UNL     1       3.895 -20.862 -15.254  0.00  0.00    +0.000 C 
ATOM     22  O   UNL     1       5.225 -20.479 -14.937  0.00  0.00    +0.000 OA
ENDBRANCH  15  22
ENDBRANCH  13  18
ENDBRANCH   1  14
TORSDOF 6
ENDMDL
MODEL 2
REMARK VINA RESULT:    -7.061      1.058      1.637
REMARK INTER + INTRA:          -9.800
REMARK INTER:                  -9.040
REMARK INTRA:                  -0.760
REMARK UNBOUND:                -0.675
REMARK  Name = 
REMARK  7 active torsions:
REMARK  status: ('A' for Active; 'I' for Inactive)
REMARK    1  A    between atoms: C_1  and  O_2
REMARK    2  A    between atoms: O_2  and  C_3
REMARK    3  A    between atoms: C_6  and  C_7
REMARK    4  A    between atoms: C_8  and  C_9
REMARK    5  A    between atoms: C_9  and  C_11
REMARK    6  A    between atoms: C_14  and  O_15
REMARK    7  A    between atoms: C_17  and  O_18
REMARK                            x       y       z     vdW  Elec       q    Type
REMARK                         _______ _______ _______ _____ _____    ______ ____
ROOT
ATOM      1  C   UNL     1      11.598 -22.673 -19.859  0.00  0.00    +0.000 C 
ATOM      2  O   UNL     1      11.344 -23.088 -21.034  0.00  0.00    +0.000 OA
ENDROOT
BRANCH   1   3
ATOM      3  C   UNL     1      13.008 -22.233 -19.496  0.00  0.00    +0.000 A 
ATOM      4  C   UNL     1      13.846 -23.120 -18.841  0.00  0.00    +0.000 A 
ATOM      5  C   UNL     1      15.005 -22.518 -18.296  0.00  0.00    +0.000 A 
ATOM      6  C   UNL     1      15.468 -21.333 -18.649  0.00  0.00    +0.000 A 
ATOM      7  C   UNL     1      14.615 -20.529 -19.353  0.00  0.00    +0.000 A 
ATOM      8  C   UNL     1      13.410 -21.006 -19.807  0.00  0.00    +0.000 A 
BRANCH   6   9
ATOM      9  O   UNL     1      16.784 -20.916 -18.316  0.00  0.00    +0.000 OA
ATOM     10  H   UNL     1      17.060 -19.966 -18.462  0.00  0.00    +0.000 HD
ENDBRANCH   6   9
BRANCH   8  11
ATOM     11  O   UNL     1      12.586 -20.181 -20.617  0.00  0.00    +0.000 OA
ATOM     12  H   UNL     1      11.602 -20.133 -20.445  0.00  0.00    +0.000 HD
ENDBRANCH   8  11
ENDBRANCH   1   3
BRANCH   1  14
ATOM     13  C   UNL     1       9.924 -21.425 -18.492  0.00  0.00    +0.000 C 
ATOM     14  C   UNL     1      10.493 -22.617 -18.817  0.00  0.00    +0.000 C 
BRANCH  13  18
ATOM     15  C   UNL     1       6.686 -21.401 -15.707  0.00  0.00    +0.000 A 
ATOM     16  C   UNL     1       7.562 -22.474 -15.699  0.00  0.00    +0.000 A 
ATOM     17  C   UNL     1       8.712 -22.280 -16.500  0.00  0.00    +0.000 A 
ATOM     18  C   UNL     1       8.820 -21.369 -17.450  0.00  0.00    +0.000 A 
ATOM     19  C   UNL     1       7.884 -20.373 -17.445  0.00  0.00    +0.000 A 
ATOM     20  C   UNL     1       6.800 -20.426 -16.600  0.00  0.00    +0.000 A 
BRANCH  15  22
ATOM     21  C   UNL     1       4.374 -20.895 -15.039  0.00  0.00    +0.000 C 
ATOM     22  O   UNL     1       5.691 -21.299 -14.699  0.00  0.00    +0.000 OA
ENDBRANCH  15  22
ENDBRANCH  13  18
ENDBRANCH   1  14
TORSDOF 6
ENDMDL
MODEL 3
REMARK VINA RESULT:    -6.847      6.705      9.861
REMARK INTER + INTRA:          -9.524
REMARK INTER:                  -8.879
REMARK INTRA:                  -0.645
REMARK UNBOUND:                -0.675
REMARK  Name = 
REMARK  7 active torsions:
REMARK  status: ('A' for Active; 'I' for Inactive)
REMARK    1  A    between atoms: C_1  and  O_2
REMARK    2  A    between atoms: O_2  and  C_3
REMARK    3  A    between atoms: C_6  and  C_7
REMARK    4  A    between atoms: C_8  and  C_9
REMARK    5  A    between atoms: C_9  and  C_11
REMARK    6  A    between atoms: C_14  and  O_15
REMARK    7  A    between atoms: C_17  and  O_18
REMARK                            x       y       z     vdW  Elec       q    Type
REMARK                         _______ _______ _______ _____ _____    ______ ____
ROOT
ATOM      1  C   UNL     1      19.181 -22.124 -24.513  0.00  0.00    +0.000 C 
ATOM      2  O   UNL     1      20.274 -22.421 -23.937  0.00  0.00    +0.000 OA
ENDROOT
BRANCH   1   3
ATOM      3  C   UNL     1      19.195 -21.567 -25.928  0.00  0.00    +0.000 A 
ATOM      4  C   UNL     1      18.613 -22.300 -26.949  0.00  0.00    +0.000 A 
ATOM      5  C   UNL     1      18.943 -21.839 -28.246  0.00  0.00    +0.000 A 
ATOM      6  C   UNL     1      19.439 -20.644 -28.511  0.00  0.00    +0.000 A 
ATOM      7  C   UNL     1      19.937 -19.941 -27.449  0.00  0.00    +0.000 A 
ATOM      8  C   UNL     1      19.769 -20.393 -26.163  0.00  0.00    +0.000 A 
BRANCH   6   9
ATOM      9  O   UNL     1      19.454 -20.116 -29.830  0.00  0.00    +0.000 OA
ATOM     10  H   UNL     1      20.249 -19.605 -30.155  0.00  0.00    +0.000 HD
ENDBRANCH   6   9
BRANCH   8  11
ATOM     11  O   UNL     1      20.212 -19.597 -25.074  0.00  0.00    +0.000 OA
ATOM     12  H   UNL     1      20.795 -18.802 -25.239  0.00  0.00    +0.000 HD
ENDBRANCH   8  11
ENDBRANCH   1   3
BRANCH   1  14
ATOM     13  C   UNL     1      17.847 -22.557 -22.449  0.00  0.00    +0.000 C 
ATOM     14  C   UNL     1      17.860 -22.324 -23.789  0.00  0.00    +0.000 C 
BRANCH  13  18
ATOM     15  C   UNL     1      14.185 -23.352 -20.399  0.00  0.00    +0.000 A 
ATOM     16  C   UNL     1      15.336 -23.157 -19.653  0.00  0.00    +0.000 A 
ATOM     17  C   UNL     1      16.436 -22.688 -20.409  0.00  0.00    +0.000 A 
ATOM     18  C   UNL     1      16.526 -22.757 -21.725  0.00  0.00    +0.000 A 
ATOM     19  C   UNL     1      15.366 -23.018 -22.400  0.00  0.00    +0.000 A 
ATOM     20  C   UNL     1      14.218 -23.357 -21.726  0.00  0.00    +0.000 A 
BRANCH  15  22
ATOM     21  C   UNL     1      12.880 -23.530 -18.323  0.00  0.00    +0.000 C 
ATOM     22  O   UNL     1      12.933 -23.472 -19.740  0.00  0.00    +0.000 OA
ENDBRANCH  15  22
ENDBRANCH  13  18
ENDBRANCH   1  14
TORSDOF 6
ENDMDL
MODEL 4
REMARK VINA RESULT:    -6.576      5.050     10.438
REMARK INTER + INTRA:          -9.174
REMARK INTER:                  -8.318
REMARK INTRA:                  -0.856
REMARK UNBOUND:                -0.675
REMARK  Name = 
REMARK  7 active torsions:
REMARK  status: ('A' for Active; 'I' for Inactive)
REMARK    1  A    between atoms: C_1  and  O_2
REMARK    2  A    between atoms: O_2  and  C_3
REMARK    3  A    between atoms: C_6  and  C_7
REMARK    4  A    between atoms: C_8  and  C_9
REMARK    5  A    between atoms: C_9  and  C_11
REMARK    6  A    between atoms: C_14  and  O_15
REMARK    7  A    between atoms: C_17  and  O_18
REMARK                            x       y       z     vdW  Elec       q    Type
REMARK                         _______ _______ _______ _____ _____    ______ ____
ROOT
ATOM      1  C   UNL     1      15.280 -22.508 -19.132  0.00  0.00    +0.000 C 
ATOM      2  O   UNL     1      15.320 -21.999 -17.968  0.00  0.00    +0.000 OA
ENDROOT
BRANCH   1   3
ATOM      3  C   UNL     1      13.941 -22.853 -19.765  0.00  0.00    +0.000 A 
ATOM      4  C   UNL     1      13.558 -24.181 -19.857  0.00  0.00    +0.000 A 
ATOM      5  C   UNL     1      12.456 -24.402 -20.716  0.00  0.00    +0.000 A 
ATOM      6  C   UNL     1      11.623 -23.461 -21.121  0.00  0.00    +0.000 A 
ATOM      7  C   UNL     1      12.029 -22.168 -20.941  0.00  0.00    +0.000 A 
ATOM      8  C   UNL     1      13.165 -21.879 -20.224  0.00  0.00    +0.000 A 
BRANCH   6   9
ATOM      9  O   UNL     1      10.370 -23.776 -21.711  0.00  0.00    +0.000 OA
ATOM     10  H   UNL     1      10.142 -24.725 -21.926  0.00  0.00    +0.000 HD
ENDBRANCH   6   9
BRANCH   8  11
ATOM     11  O   UNL     1      13.512 -20.526 -19.971  0.00  0.00    +0.000 OA
ATOM     12  H   UNL     1      14.166 -20.303 -19.249  0.00  0.00    +0.000 HD
ENDBRANCH   8  11
ENDBRANCH   1   3
BRANCH   1  14
ATOM     13  C   UNL     1      16.653 -22.473 -21.215  0.00  0.00    +0.000 C 
ATOM     14  C   UNL     1      16.570 -22.773 -19.891  0.00  0.00    +0.000 C 
BRANCH  13  18
ATOM     15  C   UNL     1      20.348 -22.997 -23.293  0.00  0.00    +0.000 A 
ATOM     16  C   UNL     1      20.315 -23.227 -21.927  0.00  0.00    +0.000 A 
ATOM     17  C   UNL     1      19.010 -23.240 -21.381  0.00  0.00    +0.000 A 
ATOM     18  C   UNL     1      17.943 -22.738 -21.975  0.00  0.00    +0.000 A 
ATOM     19  C   UNL     1      18.061 -22.468 -23.310  0.00  0.00    +0.000 A 
ATOM     20  C   UNL     1      19.277 -22.559 -23.944  0.00  0.00    +0.000 A 
BRANCH  15  22
ATOM     21  C   UNL     1      21.623 -22.934 -25.395  0.00  0.00    +0.000 C 
ATOM     22  O   UNL     1      21.523 -23.304 -24.028  0.00  0.00    +0.000 OA
ENDBRANCH  15  22
ENDBRANCH  13  18
ENDBRANCH   1  14
TORSDOF 6
ENDMDL
MODEL 5
REMARK VINA RESULT:    -6.311      2.327      8.096
REMARK INTER + INTRA:          -8.830
REMARK INTER:                  -8.155
REMARK INTRA:                  -0.675
REMARK UNBOUND:                -0.675
REMARK  Name = 
REMARK  7 active torsions:
REMARK  status: ('A' for Active; 'I' for Inactive)
REMARK    1  A    between atoms: C_1  and  O_2
REMARK    2  A    between atoms: O_2  and  C_3
REMARK    3  A    between atoms: C_6  and  C_7
REMARK    4  A    between atoms: C_8  and  C_9
REMARK    5  A    between atoms: C_9  and  C_11
REMARK    6  A    between atoms: C_14  and  O_15
REMARK    7  A    between atoms: C_17  and  O_18
REMARK                            x       y       z     vdW  Elec       q    Type
REMARK                         _______ _______ _______ _____ _____    ______ ____
ROOT
ATOM      1  C   UNL     1       9.729 -21.364 -19.433  0.00  0.00    +0.000 C 
ATOM      2  O   UNL     1       8.966 -20.970 -20.370  0.00  0.00    +0.000 OA
ENDROOT
BRANCH   1   3
ATOM      3  C   UNL     1       9.137 -21.764 -18.090  0.00  0.00    +0.000 A 
ATOM      4  C   UNL     1       9.566 -22.933 -17.483  0.00  0.00    +0.000 A 
ATOM      5  C   UNL     1       8.749 -23.355 -16.408  0.00  0.00    +0.000 A 
ATOM      6  C   UNL     1       7.884 -22.580 -15.777  0.00  0.00    +0.000 A 
ATOM      7  C   UNL     1       7.553 -21.407 -16.396  0.00  0.00    +0.000 A 
ATOM      8  C   UNL     1       8.217 -20.992 -17.525  0.00  0.00    +0.000 A 
BRANCH   6   9
ATOM      9  O   UNL     1       7.330 -22.947 -14.522  0.00  0.00    +0.000 OA
ATOM     10  H   UNL     1       7.926 -23.263 -13.785  0.00  0.00    +0.000 HD
ENDBRANCH   6   9
BRANCH   8  11
ATOM     11  O   UNL     1       7.918 -19.725 -18.092  0.00  0.00    +0.000 OA
ATOM     12  H   UNL     1       7.044 -19.282 -17.894  0.00  0.00    +0.000 HD
ENDBRANCH   8  11
ENDBRANCH   1   3
BRANCH   1  14
ATOM     13  C   UNL     1      11.778 -22.517 -20.267  0.00  0.00    +0.000 C 
ATOM     14  C   UNL     1      11.231 -21.435 -19.652  0.00  0.00    +0.000 C 
BRANCH  13  18
ATOM     15  C   UNL     1      16.018 -22.499 -20.788  0.00  0.00    +0.000 A 
ATOM     16  C   UNL     1      15.500 -22.887 -19.563  0.00  0.00    +0.000 A 
ATOM     17  C   UNL     1      14.097 -23.067 -19.566  0.00  0.00    +0.000 A 
ATOM     18  C   UNL     1      13.281 -22.588 -20.487  0.00  0.00    +0.000 A 
ATOM     19  C   UNL     1      13.860 -22.158 -21.648  0.00  0.00    +0.000 A 
ATOM     20  C   UNL     1      15.227 -22.077 -21.768  0.00  0.00    +0.000 A 
BRANCH  15  22
ATOM     21  C   UNL     1      18.323 -22.654 -19.945  0.00  0.00    +0.000 C 
ATOM     22  O   UNL     1      17.411 -22.624 -21.033  0.00  0.00    +0.000 OA
ENDBRANCH  15  22
ENDBRANCH  13  18
ENDBRANCH   1  14
TORSDOF 6
ENDMDL
