MODEL 1
REMARK VINA RESULT:    -5.680      0.000      0.000
REMARK INTER + INTRA:         -11.876
REMARK INTER:                  -8.686
REMARK INTRA:                  -3.190
REMARK UNBOUND:                -3.207
REMARK  Name = 
REMARK  10 active torsions:
REMARK  status: ('A' for Active; 'I' for Inactive)
REMARK    1  A    between atoms: C_2  and  C_3
REMARK    2  A    between atoms: C_2  and  C_14
REMARK    3  A    between atoms: C_3  and  C_4
REMARK    4  A    between atoms: C_4  and  C_5
REMARK    5  A    between atoms: C_5  and  C_6
REMARK    6  A    between atoms: C_6  and  C_7
REMARK    7  A    between atoms: C_10  and  O_11
REMARK    8  A    between atoms: C_14  and  C_15
REMARK    9  A    between atoms: C_15  and  C_16
REMARK   10  A    between atoms: C_19  and  O_20
REMARK                            x       y       z     vdW  Elec       q    Type
REMARK                         _______ _______ _______ _____ _____    ______ ____
ROOT
ATOM      1  O   UNL     1       9.875 -26.042 -21.734  0.00  0.00    +0.000 OA
ATOM      2  C   UNL     1      10.584 -24.990 -21.818  0.00  0.00    +0.000 C 
ENDROOT
BRANCH   2   3
ATOM      3  C   UNL     1      10.844 -24.356 -23.174  0.00  0.00    +0.000 C 
BRANCH   3   4
ATOM      4  C   UNL     1      10.583 -22.861 -23.094  0.00  0.00    +0.000 C 
BRANCH   4   5
ATOM      5  C   UNL     1      11.760 -22.108 -23.695  0.00  0.00    +0.000 C 
BRANCH   5   6
ATOM      6  C   UNL     1      12.801 -23.103 -24.182  0.00  0.00    +0.000 C 
BRANCH   6   7
ATOM      7  C   UNL     1      14.163 -22.727 -23.622  0.00  0.00    +0.000 A 
ATOM      8  C   UNL     1      15.157 -23.671 -23.749  0.00  0.00    +0.000 A 
ATOM      9  C   UNL     1      16.478 -23.380 -23.392  0.00  0.00    +0.000 A 
ATOM     10  C   UNL     1      16.754 -22.082 -22.914  0.00  0.00    +0.000 A 
ATOM     11  C   UNL     1      15.748 -21.159 -22.763  0.00  0.00    +0.000 A 
ATOM     12  C   UNL     1      14.454 -21.479 -23.126  0.00  0.00    +0.000 A 
BRANCH  10  13
ATOM     13  O   UNL     1      18.006 -21.704 -22.566  0.00  0.00    +0.000 OA
ATOM     14  H   UNL     1      18.432 -22.084 -21.746  0.00  0.00    +0.000 HD
ENDBRANCH  10  13
ENDBRANCH   6   7
ENDBRANCH   5   6
ENDBRANCH   4   5
ENDBRANCH   3   4
ENDBRANCH   2   3
BRANCH   2  15
ATOM     15  C   UNL     1      11.171 -24.367 -20.563  0.00  0.00    +0.000 C 
BRANCH  15  16
ATOM     16  C   UNL     1      12.676 -24.582 -20.547  0.00  0.00    +0.000 C 
BRANCH  16  17
ATOM     17  C   UNL     1      13.366 -23.302 -20.106  0.00  0.00    +0.000 A 
ATOM     18  C   UNL     1      12.654 -22.124 -20.044  0.00  0.00    +0.000 A 
ATOM     19  C   UNL     1      13.263 -20.934 -19.631  0.00  0.00    +0.000 A 
ATOM     20  C   UNL     1      14.624 -20.990 -19.264  0.00  0.00    +0.000 A 
ATOM     21  C   UNL     1      15.331 -22.165 -19.358  0.00  0.00    +0.000 A 
ATOM     22  C   UNL     1      14.699 -23.321 -19.770  0.00  0.00    +0.000 A 
BRANCH  20  23
ATOM     23  O   UNL     1      15.287 -19.895 -18.830  0.00  0.00    +0.000 OA
ATOM     24  H   UNL     1      14.881 -18.988 -18.938  0.00  0.00    +0.000 HD
ENDBRANCH  20  23
ENDBRANCH  16  17
ENDBRANCH  15  16
ENDBRANCH   2  15
TORSDOF 10
ENDMDL
MODEL 2
REMARK VINA RESULT:    -5.616      1.333      4.143
REMARK INTER + INTRA:         -11.777
REMARK INTER:                  -8.847
REMARK INTRA:                  -2.930
REMARK UNBOUND:                -3.207
REMARK  Name = 
REMARK  10 active torsions:
REMARK  status: ('A' for Active; 'I' for Inactive)
REMARK    1  A    between atoms: C_2  and  C_3
REMARK    2  A    between atoms: C_2  and  C_14
REMARK    3  A    between atoms: C_3  and  C_4
REMARK    4  A    between atoms: C_4  and  C_5
REMARK    5  A    between atoms: C_5  and  C_6
REMARK    6  A    between atoms: C_6  and  C_7
REMARK    7  A    between atoms: C_10  and  O_11
REMARK    8  A    between atoms: C_14  and  C_15
REMARK    9  A    between atoms: C_15  and  C_16
REMARK   10  A    between atoms: C_19  and  O_20
REMARK                            x       y       z     vdW  Elec       q    Type
REMARK                         _______ _______ _______ _____ _____    ______ ____
ROOT
ATOM      1  O   UNL     1       9.490 -22.361 -24.149  0.00  0.00    +0.000 OA
ATOM      2  C   UNL     1      10.582 -22.080 -23.562  0.00  0.00    +0.000 C 
ENDROOT
BRANCH   2   3
ATOM      3  C   UNL     1      10.589 -21.776 -22.073  0.00  0.00    +0.000 C 
BRANCH   3   4
ATOM      4  C   UNL     1      10.117 -22.997 -21.303  0.00  0.00    +0.000 C 
BRANCH   4   5
ATOM      5  C   UNL     1      10.951 -23.155 -20.042  0.00  0.00    +0.000 C 
BRANCH   5   6
ATOM      6  C   UNL     1      12.170 -24.011 -20.344  0.00  0.00    +0.000 C 
BRANCH   6   7
ATOM      7  C   UNL     1      13.431 -23.241 -19.987  0.00  0.00    +0.000 A 
ATOM      8  C   UNL     1      13.250 -21.977 -19.475  0.00  0.00    +0.000 A 
ATOM      9  C   UNL     1      14.331 -21.234 -18.988  0.00  0.00    +0.000 A 
ATOM     10  C   UNL     1      15.606 -21.836 -19.027  0.00  0.00    +0.000 A 
ATOM     11  C   UNL     1      15.778 -23.087 -19.569  0.00  0.00    +0.000 A 
ATOM     12  C   UNL     1      14.688 -23.792 -20.040  0.00  0.00    +0.000 A 
BRANCH  10  13
ATOM     13  O   UNL     1      16.706 -21.203 -18.558  0.00  0.00    +0.000 OA
ATOM     14  H   UNL     1      17.616 -21.541 -18.796  0.00  0.00    +0.000 HD
ENDBRANCH  10  13
ENDBRANCH   6   7
ENDBRANCH   5   6
ENDBRANCH   4   5
ENDBRANCH   3   4
ENDBRANCH   2   3
BRANCH   2  15
ATOM     15  C   UNL     1      11.882 -22.049 -24.349  0.00  0.00    +0.000 C 
BRANCH  15  16
ATOM     16  C   UNL     1      12.705 -23.283 -24.018  0.00  0.00    +0.000 C 
BRANCH  16  17
ATOM     17  C   UNL     1      14.119 -22.866 -23.649  0.00  0.00    +0.000 A 
ATOM     18  C   UNL     1      15.171 -23.722 -23.885  0.00  0.00    +0.000 A 
ATOM     19  C   UNL     1      16.484 -23.358 -23.564  0.00  0.00    +0.000 A 
ATOM     20  C   UNL     1      16.689 -22.079 -23.009  0.00  0.00    +0.000 A 
ATOM     21  C   UNL     1      15.627 -21.244 -22.751  0.00  0.00    +0.000 A 
ATOM     22  C   UNL     1      14.344 -21.635 -23.080  0.00  0.00    +0.000 A 
BRANCH  20  23
ATOM     23  O   UNL     1      17.925 -21.632 -22.691  0.00  0.00    +0.000 OA
ATOM     24  H   UNL     1      18.252 -20.761 -23.058  0.00  0.00    +0.000 HD
ENDBRANCH  20  23
ENDBRANCH  16  17
ENDBRANCH  15  16
ENDBRANCH   2  15
TORSDOF 10
ENDMDL
MODEL 3
REMARK VINA RESULT:    -5.581      3.794      5.267
REMARK INTER + INTRA:         -11.724
REMARK INTER:                  -9.744
REMARK INTRA:                  -1.981
REMARK UNBOUND:                -3.207
REMARK  Name = 
REMARK  10 active torsions:
REMARK  status: ('A' for Active; 'I' for Inactive)
REMARK    1  A    between atoms: C_2  and  C_3
REMARK    2  A    between atoms: C_2  and  C_14
REMARK    3  A    between atoms: C_3  and  C_4
REMARK    4  A    between atoms: C_4  and  C_5
REMARK    5  A    between atoms: C_5  and  C_6
REMARK    6  A    between atoms: C_6  and  C_7
REMARK    7  A    between atoms: C_10  and  O_11
REMARK    8  A    between atoms: C_14  and  C_15
REMARK    9  A    between atoms: C_15  and  C_16
REMARK   10  A    between atoms: C_19  and  O_20
REMARK                            x       y       z     vdW  Elec       q    Type
REMARK                         _______ _______ _______ _____ _____    ______ ____
ROOT
ATOM      1  O   UNL     1       8.553 -22.601 -21.113  0.00  0.00    +0.000 OA
ATOM      2  C   UNL     1       9.553 -22.684 -20.332  0.00  0.00    +0.000 C 
ENDROOT
BRANCH   2   3
ATOM      3  C   UNL     1      10.067 -24.046 -19.897  0.00  0.00    +0.000 C 
BRANCH   3   4
ATOM      4  C   UNL     1      10.607 -24.794 -21.104  0.00  0.00    +0.000 C 
BRANCH   4   5
ATOM      5  C   UNL     1      12.043 -24.369 -21.363  0.00  0.00    +0.000 C 
BRANCH   5   6
ATOM      6  C   UNL     1      12.866 -24.571 -20.102  0.00  0.00    +0.000 C 
BRANCH   6   7
ATOM      7  C   UNL     1      13.653 -23.305 -19.800  0.00  0.00    +0.000 A 
ATOM      8  C   UNL     1      13.684 -22.355 -20.796  0.00  0.00    +0.000 A 
ATOM      9  C   UNL     1      14.263 -21.100 -20.578  0.00  0.00    +0.000 A 
ATOM     10  C   UNL     1      14.795 -20.841 -19.298  0.00  0.00    +0.000 A 
ATOM     11  C   UNL     1      14.784 -21.808 -18.322  0.00  0.00    +0.000 A 
ATOM     12  C   UNL     1      14.205 -23.037 -18.572  0.00  0.00    +0.000 A 
BRANCH  10  13
ATOM     13  O   UNL     1      15.353 -19.648 -18.988  0.00  0.00    +0.000 OA
ATOM     14  H   UNL     1      14.879 -18.800 -19.221  0.00  0.00    +0.000 HD
ENDBRANCH  10  13
ENDBRANCH   6   7
ENDBRANCH   5   6
ENDBRANCH   4   5
ENDBRANCH   3   4
ENDBRANCH   2   3
BRANCH   2  15
ATOM     15  C   UNL     1      10.234 -21.420 -19.834  0.00  0.00    +0.000 C 
BRANCH  15  16
ATOM     16  C   UNL     1      10.585 -21.579 -18.364  0.00  0.00    +0.000 C 
BRANCH  16  17
ATOM     17  C   UNL     1       9.319 -21.489 -17.528  0.00  0.00    +0.000 A 
ATOM     18  C   UNL     1       8.463 -20.423 -17.691  0.00  0.00    +0.000 A 
ATOM     19  C   UNL     1       7.286 -20.322 -16.942  0.00  0.00    +0.000 A 
ATOM     20  C   UNL     1       7.001 -21.358 -16.030  0.00  0.00    +0.000 A 
ATOM     21  C   UNL     1       7.878 -22.403 -15.855  0.00  0.00    +0.000 A 
ATOM     22  C   UNL     1       9.031 -22.471 -16.611  0.00  0.00    +0.000 A 
BRANCH  20  23
ATOM     23  O   UNL     1       5.875 -21.357 -15.282  0.00  0.00    +0.000 OA
ATOM     24  H   UNL     1       5.175 -20.659 -15.433  0.00  0.00    +0.000 HD
ENDBRANCH  20  23
ENDBRANCH  16  17
ENDBRANCH  15  16
ENDBRANCH   2  15
TORSDOF 10
ENDMDL
MODEL 4
REMARK VINA RESULT:    -5.568      1.030      3.867
REMARK INTER + INTRA:         -11.704
REMARK INTER:                  -9.005
REMARK INTRA:                  -2.698
REMARK UNBOUND:                -3.207
REMARK  Name = 
REMARK  10 active torsions:
REMARK  status: ('A' for Active; 'I' for Inactive)
REMARK    1  A    between atoms: C_2  and  C_3
REMARK    2  A    between atoms: C_2  and  C_14
REMARK    3  A    between atoms: C_3  and  C_4
REMARK    4  A    between atoms: C_4  and  C_5
REMARK    5  A    between atoms: C_5  and  C_6
REMARK    6  A    between atoms: C_6  and  C_7
REMARK    7  A    between atoms: C_10  and  O_11
REMARK    8  A    between atoms: C_14  and  C_15
REMARK    9  A    between atoms: C_15  and  C_16
REMARK   10  A    between atoms: C_19  and  O_20
REMARK                            x       y       z     vdW  Elec       q    Type
REMARK                         _______ _______ _______ _____ _____    ______ ____
ROOT
ATOM      1  O   UNL     1      10.462 -26.328 -24.131  0.00  0.00    +0.000 OA
ATOM      2  C   UNL     1      11.465 -25.935 -23.457  0.00  0.00    +0.000 C 
ENDROOT
BRANCH   2   3
ATOM      3  C   UNL     1      11.451 -26.043 -21.941  0.00  0.00    +0.000 C 
BRANCH   3   4
ATOM      4  C   UNL     1      10.419 -25.083 -21.373  0.00  0.00    +0.000 C 
BRANCH   4   5
ATOM      5  C   UNL     1      11.125 -23.964 -20.625  0.00  0.00    +0.000 C 
BRANCH   5   6
ATOM      6  C   UNL     1      12.556 -24.378 -20.327  0.00  0.00    +0.000 C 
BRANCH   6   7
ATOM      7  C   UNL     1      13.324 -23.189 -19.773  0.00  0.00    +0.000 A 
ATOM      8  C   UNL     1      14.684 -23.353 -19.634  0.00  0.00    +0.000 A 
ATOM      9  C   UNL     1      15.506 -22.283 -19.263  0.00  0.00    +0.000 A 
ATOM     10  C   UNL     1      14.891 -21.031 -19.054  0.00  0.00    +0.000 A 
ATOM     11  C   UNL     1      13.528 -20.888 -19.167  0.00  0.00    +0.000 A 
ATOM     12  C   UNL     1      12.748 -21.966 -19.535  0.00  0.00    +0.000 A 
BRANCH  10  13
ATOM     13  O   UNL     1      15.607 -19.934 -18.715  0.00  0.00    +0.000 OA
ATOM     14  H   UNL     1      15.205 -19.241 -18.118  0.00  0.00    +0.000 HD
ENDBRANCH  10  13
ENDBRANCH   6   7
ENDBRANCH   5   6
ENDBRANCH   4   5
ENDBRANCH   3   4
ENDBRANCH   2   3
BRANCH   2  15
ATOM     15  C   UNL     1      12.678 -25.356 -24.166  0.00  0.00    +0.000 C 
BRANCH  15  16
ATOM     16  C   UNL     1      12.564 -23.840 -24.210  0.00  0.00    +0.000 C 
BRANCH  16  17
ATOM     17  C   UNL     1      13.882 -23.220 -23.778  0.00  0.00    +0.000 A 
ATOM     18  C   UNL     1      13.895 -21.973 -23.194  0.00  0.00    +0.000 A 
ATOM     19  C   UNL     1      15.094 -21.384 -22.778  0.00  0.00    +0.000 A 
ATOM     20  C   UNL     1      16.282 -22.121 -22.961  0.00  0.00    +0.000 A 
ATOM     21  C   UNL     1      16.259 -23.353 -23.571  0.00  0.00    +0.000 A 
ATOM     22  C   UNL     1      15.058 -23.904 -23.971  0.00  0.00    +0.000 A 
BRANCH  20  23
ATOM     23  O   UNL     1      17.483 -21.642 -22.567  0.00  0.00    +0.000 OA
ATOM     24  H   UNL     1      17.531 -20.907 -21.891  0.00  0.00    +0.000 HD
ENDBRANCH  20  23
ENDBRANCH  16  17
ENDBRANCH  15  16
ENDBRANCH   2  15
TORSDOF 10
ENDMDL
MODEL 5
REMARK VINA RESULT:    -5.406      1.686      4.928
REMARK INTER + INTRA:         -11.457
REMARK INTER:                  -8.251
REMARK INTRA:                  -3.207
REMARK UNBOUND:                -3.207
REMARK  Name = 
REMARK  10 active torsions:
REMARK  status: ('A' for Active; 'I' for Inactive)
REMARK    1  A    between atoms: C_2  and  C_3
REMARK    2  A    between atoms: C_2  and  C_14
REMARK    3  A    between atoms: C_3  and  C_4
REMARK    4  A    between atoms: C_4  and  C_5
REMARK    5  A    between atoms: C_5  and  C_6
REMARK    6  A    between atoms: C_6  and  C_7
REMARK    7  A    between atoms: C_10  and  O_11
REMARK    8  A    between atoms: C_14  and  C_15
REMARK    9  A    between atoms: C_15  and  C_16
REMARK   10  A    between atoms: C_19  and  O_20
REMARK                            x       y       z     vdW  Elec       q    Type
REMARK                         _______ _______ _______ _____ _____    ______ ____
ROOT
ATOM      1  O   UNL     1      18.017 -22.635 -21.831  0.00  0.00    +0.000 OA
ATOM      2  C   UNL     1      16.777 -22.405 -21.671  0.00  0.00    +0.000 C 
ENDROOT
BRANCH   2   3
ATOM      3  C   UNL     1      15.897 -22.113 -22.874  0.00  0.00    +0.000 C 
BRANCH   3   4
ATOM      4  C   UNL     1      15.806 -23.352 -23.750  0.00  0.00    +0.000 C 
BRANCH   4   5
ATOM      5  C   UNL     1      14.354 -23.790 -23.858  0.00  0.00    +0.000 C 
BRANCH   5   6
ATOM      6  C   UNL     1      13.445 -22.599 -23.604  0.00  0.00    +0.000 C 
BRANCH   6   7
ATOM      7  C   UNL     1      12.186 -23.064 -22.891  0.00  0.00    +0.000 A 
ATOM      8  C   UNL     1      12.168 -24.378 -22.479  0.00  0.00    +0.000 A 
ATOM      9  C   UNL     1      11.119 -24.875 -21.698  0.00  0.00    +0.000 A 
ATOM     10  C   UNL     1      10.094 -23.976 -21.335  0.00  0.00    +0.000 A 
ATOM     11  C   UNL     1      10.108 -22.675 -21.778  0.00  0.00    +0.000 A 
ATOM     12  C   UNL     1      11.160 -22.218 -22.548  0.00  0.00    +0.000 A 
BRANCH  10  13
ATOM     13  O   UNL     1       9.052 -24.361 -20.562  0.00  0.00    +0.000 OA
ATOM     14  H   UNL     1       9.219 -24.745 -19.654  0.00  0.00    +0.000 HD
ENDBRANCH  10  13
ENDBRANCH   6   7
ENDBRANCH   5   6
ENDBRANCH   4   5
ENDBRANCH   3   4
ENDBRANCH   2   3
BRANCH   2  15
ATOM     15  C   UNL     1      16.175 -22.423 -20.276  0.00  0.00    +0.000 C 
BRANCH  15  16
ATOM     16  C   UNL     1      15.174 -23.562 -20.170  0.00  0.00    +0.000 C 
BRANCH  16  17
ATOM     17  C   UNL     1      13.884 -23.047 -19.553  0.00  0.00    +0.000 A 
ATOM     18  C   UNL     1      13.092 -23.894 -18.810  0.00  0.00    +0.000 A 
ATOM     19  C   UNL     1      11.905 -23.442 -18.223  0.00  0.00    +0.000 A 
ATOM     20  C   UNL     1      11.561 -22.087 -18.405  0.00  0.00    +0.000 A 
ATOM     21  C   UNL     1      12.344 -21.259 -19.174  0.00  0.00    +0.000 A 
ATOM     22  C   UNL     1      13.509 -21.737 -19.739  0.00  0.00    +0.000 A 
BRANCH  20  23
ATOM     23  O   UNL     1      10.446 -21.557 -17.854  0.00  0.00    +0.000 OA
ATOM     24  H   UNL     1       9.910 -20.881 -18.361  0.00  0.00    +0.000 HD
ENDBRANCH  20  23
ENDBRANCH  16  17
ENDBRANCH  15  16
ENDBRANCH   2  15
TORSDOF 10
ENDMDL
