MODEL 1
REMARK VINA RESULT:    -7.116      0.000      0.000
REMARK INTER + INTRA:          -9.780
REMARK INTER:                  -9.072
REMARK INTRA:                  -0.708
REMARK UNBOUND:                -0.376
REMARK  Name = 
REMARK  8 active torsions:
REMARK  status: ('A' for Active; 'I' for Inactive)
REMARK    1  A    between atoms: C_1  and  O_2
REMARK    2  A    between atoms: O_2  and  C_3
REMARK    3  A    between atoms: C_6  and  C_7
REMARK    4  A    between atoms: C_8  and  C_9
REMARK    5  A    between atoms: C_9  and  C_11
REMARK    6  A    between atoms: C_14  and  O_15
REMARK    7  A    between atoms: O_15  and  C_16
REMARK    8  A    between atoms: C_18  and  O_19
REMARK                            x       y       z     vdW  Elec       q    Type
REMARK                         _______ _______ _______ _____ _____    ______ ____
ROOT
ATOM      1  C   UNL     1      17.758 -22.765 -20.262  0.00  0.00    +0.000 C 
ATOM      2  O   UNL     1      18.672 -22.925 -19.395  0.00  0.00    +0.000 OA
ENDROOT
BRANCH   1   3
ATOM      3  C   UNL     1      16.306 -22.655 -19.824  0.00  0.00    +0.000 A 
ATOM      4  C   UNL     1      15.380 -23.567 -20.303  0.00  0.00    +0.000 A 
ATOM      5  C   UNL     1      14.036 -23.196 -20.066  0.00  0.00    +0.000 A 
ATOM      6  C   UNL     1      13.651 -22.294 -19.182  0.00  0.00    +0.000 A 
ATOM      7  C   UNL     1      14.626 -21.467 -18.696  0.00  0.00    +0.000 A 
ATOM      8  C   UNL     1      15.950 -21.686 -18.988  0.00  0.00    +0.000 A 
BRANCH   6   9
ATOM      9  O   UNL     1      12.300 -22.188 -18.760  0.00  0.00    +0.000 OA
ATOM     10  C   UNL     1      11.659 -23.297 -18.147  0.00  0.00    +0.000 C 
ENDBRANCH   6   9
BRANCH   8  11
ATOM     11  O   UNL     1      16.947 -20.869 -18.393  0.00  0.00    +0.000 OA
ATOM     12  H   UNL     1      17.877 -21.218 -18.276  0.00  0.00    +0.000 HD
ENDBRANCH   8  11
ENDBRANCH   1   3
BRANCH   1  14
ATOM     13  C   UNL     1      19.386 -22.946 -22.146  0.00  0.00    +0.000 C 
ATOM     14  C   UNL     1      18.114 -22.683 -21.737  0.00  0.00    +0.000 C 
BRANCH  13  18
ATOM     15  C   UNL     1      20.456 -22.493 -26.255  0.00  0.00    +0.000 A 
ATOM     16  C   UNL     1      21.444 -22.826 -25.344  0.00  0.00    +0.000 A 
ATOM     17  C   UNL     1      20.950 -23.165 -24.062  0.00  0.00    +0.000 A 
ATOM     18  C   UNL     1      19.742 -22.864 -23.620  0.00  0.00    +0.000 A 
ATOM     19  C   UNL     1      18.831 -22.476 -24.562  0.00  0.00    +0.000 A 
ATOM     20  C   UNL     1      19.209 -22.252 -25.863  0.00  0.00    +0.000 A 
BRANCH  15  22
ATOM     21  C   UNL     1      20.004 -22.597 -28.671  0.00  0.00    +0.000 C 
ATOM     22  O   UNL     1      20.877 -22.286 -27.596  0.00  0.00    +0.000 OA
ENDBRANCH  15  22
ENDBRANCH  13  18
ENDBRANCH   1  14
TORSDOF 6
ENDMDL
MODEL 2
REMARK VINA RESULT:    -6.968      1.880      3.424
REMARK INTER + INTRA:          -9.585
REMARK INTER:                  -8.905
REMARK INTRA:                  -0.680
REMARK UNBOUND:                -0.376
REMARK  Name = 
REMARK  8 active torsions:
REMARK  status: ('A' for Active; 'I' for Inactive)
REMARK    1  A    between atoms: C_1  and  O_2
REMARK    2  A    between atoms: O_2  and  C_3
REMARK    3  A    between atoms: C_6  and  C_7
REMARK    4  A    between atoms: C_8  and  C_9
REMARK    5  A    between atoms: C_9  and  C_11
REMARK    6  A    between atoms: C_14  and  O_15
REMARK    7  A    between atoms: O_15  and  C_16
REMARK    8  A    between atoms: C_18  and  O_19
REMARK                            x       y       z     vdW  Elec       q    Type
REMARK                         _______ _______ _______ _____ _____    ______ ____
ROOT
ATOM      1  C   UNL     1      14.870 -22.216 -18.994  0.00  0.00    +0.000 C 
ATOM      2  O   UNL     1      15.321 -22.034 -17.820  0.00  0.00    +0.000 OA
ENDROOT
BRANCH   1   3
ATOM      3  C   UNL     1      13.372 -22.162 -19.247  0.00  0.00    +0.000 A 
ATOM      4  C   UNL     1      12.877 -21.311 -20.222  0.00  0.00    +0.000 A 
ATOM      5  C   UNL     1      11.475 -21.132 -20.169  0.00  0.00    +0.000 A 
ATOM      6  C   UNL     1      10.640 -21.932 -19.530  0.00  0.00    +0.000 A 
ATOM      7  C   UNL     1      11.198 -22.797 -18.629  0.00  0.00    +0.000 A 
ATOM      8  C   UNL     1      12.562 -22.934 -18.531  0.00  0.00    +0.000 A 
BRANCH   6   9
ATOM      9  O   UNL     1       9.241 -21.896 -19.766  0.00  0.00    +0.000 OA
ATOM     10  C   UNL     1       8.469 -20.804 -19.288  0.00  0.00    +0.000 C 
ENDBRANCH   6   9
BRANCH   8  11
ATOM     11  O   UNL     1      13.110 -23.907 -17.655  0.00  0.00    +0.000 OA
ATOM     12  H   UNL     1      13.851 -23.657 -17.030  0.00  0.00    +0.000 HD
ENDBRANCH   8  11
ENDBRANCH   1   3
BRANCH   1  14
ATOM     13  C   UNL     1      17.163 -22.584 -19.907  0.00  0.00    +0.000 C 
ATOM     14  C   UNL     1      15.826 -22.485 -20.143  0.00  0.00    +0.000 C 
BRANCH  13  18
ATOM     15  C   UNL     1      19.926 -23.120 -23.120  0.00  0.00    +0.000 A 
ATOM     16  C   UNL     1      20.379 -23.273 -21.820  0.00  0.00    +0.000 A 
ATOM     17  C   UNL     1      19.348 -23.293 -20.852  0.00  0.00    +0.000 A 
ATOM     18  C   UNL     1      18.119 -22.854 -21.057  0.00  0.00    +0.000 A 
ATOM     19  C   UNL     1      17.754 -22.657 -22.359  0.00  0.00    +0.000 A 
ATOM     20  C   UNL     1      18.676 -22.749 -23.374  0.00  0.00    +0.000 A 
BRANCH  15  22
ATOM     21  C   UNL     1      20.742 -22.525 -25.362  0.00  0.00    +0.000 C 
ATOM     22  O   UNL     1      20.901 -23.240 -24.146  0.00  0.00    +0.000 OA
ENDBRANCH  15  22
ENDBRANCH  13  18
ENDBRANCH   1  14
TORSDOF 6
ENDMDL
MODEL 3
REMARK VINA RESULT:    -6.956      1.187      1.384
REMARK INTER + INTRA:          -9.568
REMARK INTER:                  -8.850
REMARK INTRA:                  -0.719
REMARK UNBOUND:                -0.376
REMARK  Name = 
REMARK  8 active torsions:
REMARK  status: ('A' for Active; 'I' for Inactive)
REMARK    1  A    between atoms: C_1  and  O_2
REMARK    2  A    between atoms: O_2  and  C_3
REMARK    3  A    between atoms: C_6  and  C_7
REMARK    4  A    between atoms: C_8  and  C_9
REMARK    5  A    between atoms: C_9  and  C_11
REMARK    6  A    between atoms: C_14  and  O_15
REMARK    7  A    between atoms: O_15  and  C_16
REMARK    8  A    between atoms: C_18  and  O_19
REMARK                            x       y       z     vdW  Elec       q    Type
REMARK                         _______ _______ _______ _____ _____    ______ ____
ROOT
ATOM      1  C   UNL     1      16.496 -22.319 -20.113  0.00  0.00    +0.000 C 
ATOM      2  O   UNL     1      17.378 -22.154 -19.214  0.00  0.00    +0.000 OA
ENDROOT
BRANCH   1   3
ATOM      3  C   UNL     1      15.032 -22.450 -19.725  0.00  0.00    +0.000 A 
ATOM      4  C   UNL     1      14.414 -23.688 -19.810  0.00  0.00    +0.000 A 
ATOM      5  C   UNL     1      13.004 -23.633 -19.707  0.00  0.00    +0.000 A 
ATOM      6  C   UNL     1      12.327 -22.608 -19.223  0.00  0.00    +0.000 A 
ATOM      7  C   UNL     1      13.012 -21.431 -19.101  0.00  0.00    +0.000 A 
ATOM      8  C   UNL     1      14.369 -21.377 -19.311  0.00  0.00    +0.000 A 
BRANCH   6   9
ATOM      9  O   UNL     1      10.962 -22.722 -18.850  0.00  0.00    +0.000 OA
ATOM     10  C   UNL     1      10.593 -23.538 -17.748  0.00  0.00    +0.000 C 
ENDBRANCH   6   9
BRANCH   8  11
ATOM     11  O   UNL     1      15.069 -20.162 -19.084  0.00  0.00    +0.000 OA
ATOM     12  H   UNL     1      16.054 -20.114 -19.249  0.00  0.00    +0.000 HD
ENDBRANCH   8  11
ENDBRANCH   1   3
BRANCH   1  14
ATOM     13  C   UNL     1      18.158 -22.787 -21.915  0.00  0.00    +0.000 C 
ATOM     14  C   UNL     1      16.903 -22.386 -21.576  0.00  0.00    +0.000 C 
BRANCH  13  18
ATOM     15  C   UNL     1      19.278 -22.739 -26.036  0.00  0.00    +0.000 A 
ATOM     16  C   UNL     1      20.249 -22.489 -25.081  0.00  0.00    +0.000 A 
ATOM     17  C   UNL     1      19.827 -22.744 -23.754  0.00  0.00    +0.000 A 
ATOM     18  C   UNL     1      18.565 -22.854 -23.378  0.00  0.00    +0.000 A 
ATOM     19  C   UNL     1      17.647 -23.030 -24.374  0.00  0.00    +0.000 A 
ATOM     20  C   UNL     1      18.008 -22.927 -25.695  0.00  0.00    +0.000 A 
BRANCH  15  22
ATOM     21  C   UNL     1      20.911 -21.999 -27.720  0.00  0.00    +0.000 C 
ATOM     22  O   UNL     1      19.689 -22.642 -27.393  0.00  0.00    +0.000 OA
ENDBRANCH  15  22
ENDBRANCH  13  18
ENDBRANCH   1  14
TORSDOF 6
ENDMDL
MODEL 4
REMARK VINA RESULT:    -6.948      4.069     10.815
REMARK INTER + INTRA:          -9.558
REMARK INTER:                  -8.772
REMARK INTRA:                  -0.786
REMARK UNBOUND:                -0.376
REMARK  Name = 
REMARK  8 active torsions:
REMARK  status: ('A' for Active; 'I' for Inactive)
REMARK    1  A    between atoms: C_1  and  O_2
REMARK    2  A    between atoms: O_2  and  C_3
REMARK    3  A    between atoms: C_6  and  C_7
REMARK    4  A    between atoms: C_8  and  C_9
REMARK    5  A    between atoms: C_9  and  C_11
REMARK    6  A    between atoms: C_14  and  O_15
REMARK    7  A    between atoms: O_15  and  C_16
REMARK    8  A    between atoms: C_18  and  O_19
REMARK                            x       y       z     vdW  Elec       q    Type
REMARK                         _______ _______ _______ _____ _____    ______ ____
ROOT
ATOM      1  C   UNL     1      11.364 -22.244 -20.858  0.00  0.00    +0.000 C 
ATOM      2  O   UNL     1      10.980 -21.957 -22.035  0.00  0.00    +0.000 OA
ENDROOT
BRANCH   1   3
ATOM      3  C   UNL     1      12.840 -22.473 -20.576  0.00  0.00    +0.000 A 
ATOM      4  C   UNL     1      13.335 -23.767 -20.553  0.00  0.00    +0.000 A 
ATOM      5  C   UNL     1      14.633 -23.873 -20.001  0.00  0.00    +0.000 A 
ATOM      6  C   UNL     1      15.469 -22.862 -19.847  0.00  0.00    +0.000 A 
ATOM      7  C   UNL     1      14.930 -21.609 -19.949  0.00  0.00    +0.000 A 
ATOM      8  C   UNL     1      13.631 -21.428 -20.357  0.00  0.00    +0.000 A 
BRANCH   6   9
ATOM      9  O   UNL     1      16.850 -23.065 -19.592  0.00  0.00    +0.000 OA
ATOM     10  C   UNL     1      17.816 -22.668 -20.555  0.00  0.00    +0.000 C 
ENDBRANCH   6   9
BRANCH   8  11
ATOM     11  O   UNL     1      13.128 -20.114 -20.544  0.00  0.00    +0.000 OA
ATOM     12  H   UNL     1      13.760 -19.348 -20.661  0.00  0.00    +0.000 HD
ENDBRANCH   8  11
ENDBRANCH   1   3
BRANCH   1  14
ATOM     13  C   UNL     1      10.174 -21.323 -18.866  0.00  0.00    +0.000 C 
ATOM     14  C   UNL     1      10.348 -22.358 -19.733  0.00  0.00    +0.000 C 
BRANCH  13  18
ATOM     15  C   UNL     1       7.187 -21.776 -15.848  0.00  0.00    +0.000 A 
ATOM     16  C   UNL     1       8.143 -22.768 -15.992  0.00  0.00    +0.000 A 
ATOM     17  C   UNL     1       9.204 -22.420 -16.860  0.00  0.00    +0.000 A 
ATOM     18  C   UNL     1       9.159 -21.437 -17.742  0.00  0.00    +0.000 A 
ATOM     19  C   UNL     1       8.150 -20.528 -17.587  0.00  0.00    +0.000 A 
ATOM     20  C   UNL     1       7.149 -20.732 -16.668  0.00  0.00    +0.000 A 
BRANCH  15  22
ATOM     21  C   UNL     1       5.249 -23.068 -15.058  0.00  0.00    +0.000 C 
ATOM     22  O   UNL     1       6.177 -22.009 -14.877  0.00  0.00    +0.000 OA
ENDBRANCH  15  22
ENDBRANCH  13  18
ENDBRANCH   1  14
TORSDOF 6
ENDMDL
MODEL 5
REMARK VINA RESULT:    -6.929      1.343      8.430
REMARK INTER + INTRA:          -9.533
REMARK INTER:                  -9.156
REMARK INTRA:                  -0.376
REMARK UNBOUND:                -0.376
REMARK  Name = 
REMARK  8 active torsions:
REMARK  status: ('A' for Active; 'I' for Inactive)
REMARK    1  A    between atoms: C_1  and  O_2
REMARK    2  A    between atoms: O_2  and  C_3
REMARK    3  A    between atoms: C_6  and  C_7
REMARK    4  A    between atoms: C_8  and  C_9
REMARK    5  A    between atoms: C_9  and  C_11
REMARK    6  A    between atoms: C_14  and  O_15
REMARK    7  A    between atoms: O_15  and  C_16
REMARK    8  A    between atoms: C_18  and  O_19
REMARK                            x       y       z     vdW  Elec       q    Type
REMARK                         _______ _______ _______ _____ _____    ______ ____
ROOT
ATOM      1  C   UNL     1      17.933 -22.753 -20.426  0.00  0.00    +0.000 C 
ATOM      2  O   UNL     1      18.749 -22.750 -19.451  0.00  0.00    +0.000 OA
ENDROOT
BRANCH   1   3
ATOM      3  C   UNL     1      18.455 -22.707 -21.853  0.00  0.00    +0.000 A 
ATOM      4  C   UNL     1      17.607 -22.311 -22.874  0.00  0.00    +0.000 A 
ATOM      5  C   UNL     1      18.105 -22.584 -24.170  0.00  0.00    +0.000 A 
ATOM      6  C   UNL     1      19.370 -22.845 -24.448  0.00  0.00    +0.000 A 
ATOM      7  C   UNL     1      20.172 -23.162 -23.387  0.00  0.00    +0.000 A 
ATOM      8  C   UNL     1      19.716 -23.046 -22.097  0.00  0.00    +0.000 A 
BRANCH   6   9
ATOM      9  O   UNL     1      19.869 -22.796 -25.776  0.00  0.00    +0.000 OA
ATOM     10  C   UNL     1      21.230 -22.465 -26.011  0.00  0.00    +0.000 C 
ENDBRANCH   6   9
BRANCH   8  11
ATOM     11  O   UNL     1      20.600 -23.292 -21.013  0.00  0.00    +0.000 OA
ATOM     12  H   UNL     1      21.424 -23.841 -21.154  0.00  0.00    +0.000 HD
ENDBRANCH   8  11
ENDBRANCH   1   3
BRANCH   1  14
ATOM     13  C   UNL     1      15.901 -22.087 -19.138  0.00  0.00    +0.000 C 
ATOM     14  C   UNL     1      16.437 -22.802 -20.165  0.00  0.00    +0.000 C 
BRANCH  13  18
ATOM     15  C   UNL     1      11.671 -22.344 -18.608  0.00  0.00    +0.000 A 
ATOM     16  C   UNL     1      12.458 -23.409 -18.203  0.00  0.00    +0.000 A 
ATOM     17  C   UNL     1      13.846 -23.135 -18.218  0.00  0.00    +0.000 A 
ATOM     18  C   UNL     1      14.405 -22.136 -18.877  0.00  0.00    +0.000 A 
ATOM     19  C   UNL     1      13.565 -21.149 -19.312  0.00  0.00    +0.000 A 
ATOM     20  C   UNL     1      12.202 -21.286 -19.212  0.00  0.00    +0.000 A 
BRANCH  15  22
ATOM     21  C   UNL     1       9.493 -21.509 -17.830  0.00  0.00    +0.000 C 
ATOM     22  O   UNL     1      10.267 -22.509 -18.474  0.00  0.00    +0.000 OA
ENDBRANCH  15  22
ENDBRANCH  13  18
ENDBRANCH   1  14
TORSDOF 6
ENDMDL
