MODEL 1
REMARK VINA RESULT:    -6.213      0.000      0.000
REMARK INTER + INTRA:          -8.184
REMARK INTER:                  -7.905
REMARK INTRA:                  -0.279
REMARK UNBOUND:                -0.518
REMARK  Name = 
REMARK  6 active torsions:
REMARK  status: ('A' for Active; 'I' for Inactive)
REMARK    1  A    between atoms: C_1  and  O_2
REMARK    2  A    between atoms: O_2  and  C_3
REMARK    3  A    between atoms: C_6  and  C_7
REMARK    4  A    between atoms: C_8  and  C_9
REMARK    5  A    between atoms: C_11  and  O_12
REMARK    6  A    between atoms: C_14  and  O_15
REMARK                            x       y       z     vdW  Elec       q    Type
REMARK                         _______ _______ _______ _____ _____    ______ ____
ROOT
ATOM      1  C   UNL     1       9.632 -21.560 -21.034  0.00  0.00    +0.000 C 
ATOM      2  C   UNL     1      10.934 -21.541 -21.426  0.00  0.00    +0.000 C 
ENDROOT
BRANCH   1   6
ATOM      3  C   UNL     1       8.864 -22.520 -16.944  0.00  0.00    +0.000 A 
ATOM      4  C   UNL     1       9.342 -21.258 -17.252  0.00  0.00    +0.000 A 
ATOM      5  C   UNL     1       9.353 -20.970 -18.637  0.00  0.00    +0.000 A 
ATOM      6  C   UNL     1       9.277 -21.881 -19.591  0.00  0.00    +0.000 A 
ATOM      7  C   UNL     1       8.864 -23.127 -19.210  0.00  0.00    +0.000 A 
ATOM      8  C   UNL     1       8.705 -23.445 -17.884  0.00  0.00    +0.000 A 
BRANCH   3  10
ATOM      9  C   UNL     1       7.261 -22.526 -15.078  0.00  0.00    +0.000 C 
ATOM     10  O   UNL     1       8.543 -22.845 -15.599  0.00  0.00    +0.000 OA
ENDBRANCH   3  10
ENDBRANCH   1   6
BRANCH   2  11
ATOM     11  C   UNL     1      12.036 -21.842 -20.423  0.00  0.00    +0.000 A 
ATOM     12  C   UNL     1      12.101 -23.085 -19.818  0.00  0.00    +0.000 A 
ATOM     13  C   UNL     1      12.986 -23.141 -18.715  0.00  0.00    +0.000 A 
ATOM     14  C   UNL     1      13.935 -22.255 -18.472  0.00  0.00    +0.000 A 
ATOM     15  C   UNL     1      13.853 -21.072 -19.152  0.00  0.00    +0.000 A 
ATOM     16  C   UNL     1      12.929 -20.897 -20.154  0.00  0.00    +0.000 A 
BRANCH  13  17
ATOM     17  O   UNL     1      12.843 -24.223 -17.807  0.00  0.00    +0.000 OA
ATOM     18  H   UNL     1      13.434 -24.281 -17.003  0.00  0.00    +0.000 HD
ENDBRANCH  13  17
BRANCH  15  19
ATOM     19  O   UNL     1      14.735 -20.010 -18.819  0.00  0.00    +0.000 OA
ATOM     20  H   UNL     1      15.327 -19.614 -19.520  0.00  0.00    +0.000 HD
ENDBRANCH  15  19
ENDBRANCH   2  11
TORSDOF 5
ENDMDL
MODEL 2
REMARK VINA RESULT:    -6.125      0.673      1.923
REMARK INTER + INTRA:          -8.076
REMARK INTER:                  -7.511
REMARK INTRA:                  -0.565
REMARK UNBOUND:                -0.518
REMARK  Name = 
REMARK  6 active torsions:
REMARK  status: ('A' for Active; 'I' for Inactive)
REMARK    1  A    between atoms: C_1  and  O_2
REMARK    2  A    between atoms: O_2  and  C_3
REMARK    3  A    between atoms: C_6  and  C_7
REMARK    4  A    between atoms: C_8  and  C_9
REMARK    5  A    between atoms: C_11  and  O_12
REMARK    6  A    between atoms: C_14  and  O_15
REMARK                            x       y       z     vdW  Elec       q    Type
REMARK                         _______ _______ _______ _____ _____    ______ ____
ROOT
ATOM      1  C   UNL     1       9.551 -21.522 -21.191  0.00  0.00    +0.000 C 
ATOM      2  C   UNL     1      10.847 -21.503 -21.604  0.00  0.00    +0.000 C 
ENDROOT
BRANCH   1   6
ATOM      3  C   UNL     1       8.849 -22.516 -17.097  0.00  0.00    +0.000 A 
ATOM      4  C   UNL     1       9.051 -21.188 -17.433  0.00  0.00    +0.000 A 
ATOM      5  C   UNL     1       9.054 -20.943 -18.826  0.00  0.00    +0.000 A 
ATOM      6  C   UNL     1       9.218 -21.874 -19.750  0.00  0.00    +0.000 A 
ATOM      7  C   UNL     1       9.073 -23.170 -19.339  0.00  0.00    +0.000 A 
ATOM      8  C   UNL     1       8.934 -23.478 -18.009  0.00  0.00    +0.000 A 
BRANCH   3  10
ATOM      9  C   UNL     1       7.326 -22.460 -15.166  0.00  0.00    +0.000 C 
ATOM     10  O   UNL     1       8.554 -22.867 -15.752  0.00  0.00    +0.000 OA
ENDBRANCH   3  10
ENDBRANCH   1   6
BRANCH   2  11
ATOM     11  C   UNL     1      11.962 -21.835 -20.626  0.00  0.00    +0.000 A 
ATOM     12  C   UNL     1      12.548 -20.830 -19.877  0.00  0.00    +0.000 A 
ATOM     13  C   UNL     1      13.742 -21.220 -19.226  0.00  0.00    +0.000 A 
ATOM     14  C   UNL     1      14.107 -22.474 -19.020  0.00  0.00    +0.000 A 
ATOM     15  C   UNL     1      13.444 -23.427 -19.742  0.00  0.00    +0.000 A 
ATOM     16  C   UNL     1      12.348 -23.100 -20.504  0.00  0.00    +0.000 A 
BRANCH  13  17
ATOM     17  O   UNL     1      14.608 -20.195 -18.762  0.00  0.00    +0.000 OA
ATOM     18  H   UNL     1      14.328 -19.238 -18.824  0.00  0.00    +0.000 HD
ENDBRANCH  13  17
BRANCH  15  19
ATOM     19  O   UNL     1      13.894 -24.773 -19.703  0.00  0.00    +0.000 OA
ATOM     20  H   UNL     1      14.861 -24.973 -19.546  0.00  0.00    +0.000 HD
ENDBRANCH  15  19
ENDBRANCH   2  11
TORSDOF 5
ENDMDL
MODEL 3
REMARK VINA RESULT:    -5.923      1.660      2.336
REMARK INTER + INTRA:          -7.826
REMARK INTER:                  -7.137
REMARK INTRA:                  -0.689
REMARK UNBOUND:                -0.518
REMARK  Name = 
REMARK  6 active torsions:
REMARK  status: ('A' for Active; 'I' for Inactive)
REMARK    1  A    between atoms: C_1  and  O_2
REMARK    2  A    between atoms: O_2  and  C_3
REMARK    3  A    between atoms: C_6  and  C_7
REMARK    4  A    between atoms: C_8  and  C_9
REMARK    5  A    between atoms: C_11  and  O_12
REMARK    6  A    between atoms: C_14  and  O_15
REMARK                            x       y       z     vdW  Elec       q    Type
REMARK                         _______ _______ _______ _____ _____    ______ ____
ROOT
ATOM      1  C   UNL     1      11.165 -24.061 -22.176  0.00  0.00    +0.000 C 
ATOM      2  C   UNL     1      12.505 -24.210 -21.994  0.00  0.00    +0.000 C 
ENDROOT
BRANCH   1   6
ATOM      3  C   UNL     1       9.144 -21.414 -19.502  0.00  0.00    +0.000 A 
ATOM      4  C   UNL     1       9.751 -20.885 -20.629  0.00  0.00    +0.000 A 
ATOM      5  C   UNL     1      10.197 -21.860 -21.552  0.00  0.00    +0.000 A 
ATOM      6  C   UNL     1      10.373 -23.137 -21.264  0.00  0.00    +0.000 A 
ATOM      7  C   UNL     1       9.806 -23.583 -20.103  0.00  0.00    +0.000 A 
ATOM      8  C   UNL     1       9.236 -22.706 -19.213  0.00  0.00    +0.000 A 
BRANCH   3  10
ATOM      9  C   UNL     1       8.144 -20.976 -17.298  0.00  0.00    +0.000 C 
ATOM     10  O   UNL     1       8.413 -20.563 -18.629  0.00  0.00    +0.000 OA
ENDBRANCH   3  10
ENDBRANCH   1   6
BRANCH   2  11
ATOM     11  C   UNL     1      13.211 -23.454 -20.881  0.00  0.00    +0.000 A 
ATOM     12  C   UNL     1      13.315 -24.016 -19.620  0.00  0.00    +0.000 A 
ATOM     13  C   UNL     1      13.737 -23.108 -18.620  0.00  0.00    +0.000 A 
ATOM     14  C   UNL     1      14.329 -21.952 -18.861  0.00  0.00    +0.000 A 
ATOM     15  C   UNL     1      14.249 -21.482 -20.142  0.00  0.00    +0.000 A 
ATOM     16  C   UNL     1      13.730 -22.261 -21.148  0.00  0.00    +0.000 A 
BRANCH  13  17
ATOM     17  O   UNL     1      13.509 -23.464 -17.265  0.00  0.00    +0.000 OA
ATOM     18  H   UNL     1      14.272 -23.764 -16.692  0.00  0.00    +0.000 HD
ENDBRANCH  13  17
BRANCH  15  19
ATOM     19  O   UNL     1      14.710 -20.172 -20.438  0.00  0.00    +0.000 OA
ATOM     20  H   UNL     1      14.080 -19.493 -20.814  0.00  0.00    +0.000 HD
ENDBRANCH  15  19
ENDBRANCH   2  11
TORSDOF 5
ENDMDL
MODEL 4
REMARK VINA RESULT:    -5.726      1.540      5.201
REMARK INTER + INTRA:          -7.583
REMARK INTER:                  -7.038
REMARK INTRA:                  -0.545
REMARK UNBOUND:                -0.518
REMARK  Name = 
REMARK  6 active torsions:
REMARK  status: ('A' for Active; 'I' for Inactive)
REMARK    1  A    between atoms: C_1  and  O_2
REMARK    2  A    between atoms: O_2  and  C_3
REMARK    3  A    between atoms: C_6  and  C_7
REMARK    4  A    between atoms: C_8  and  C_9
REMARK    5  A    between atoms: C_11  and  O_12
REMARK    6  A    between atoms: C_14  and  O_15
REMARK                            x       y       z     vdW  Elec       q    Type
REMARK                         _______ _______ _______ _____ _____    ______ ____
ROOT
ATOM      1  C   UNL     1       9.272 -24.009 -20.301  0.00  0.00    +0.000 C 
ATOM      2  C   UNL     1       8.160 -23.910 -19.525  0.00  0.00    +0.000 C 
ENDROOT
BRANCH   1   6
ATOM      3  C   UNL     1      12.669 -21.715 -19.100  0.00  0.00    +0.000 A 
ATOM      4  C   UNL     1      12.414 -22.913 -18.453  0.00  0.00    +0.000 A 
ATOM      5  C   UNL     1      11.406 -23.693 -19.068  0.00  0.00    +0.000 A 
ATOM      6  C   UNL     1      10.525 -23.229 -19.937  0.00  0.00    +0.000 A 
ATOM      7  C   UNL     1      10.801 -22.009 -20.489  0.00  0.00    +0.000 A 
ATOM      8  C   UNL     1      11.847 -21.246 -20.031  0.00  0.00    +0.000 A 
BRANCH   3  10
ATOM      9  C   UNL     1      15.077 -21.618 -18.604  0.00  0.00    +0.000 C 
ATOM     10  O   UNL     1      13.826 -20.964 -18.761  0.00  0.00    +0.000 OA
ENDBRANCH   3  10
ENDBRANCH   1   6
BRANCH   2  11
ATOM     11  C   UNL     1       8.168 -23.018 -18.294  0.00  0.00    +0.000 A 
ATOM     12  C   UNL     1       8.393 -23.567 -17.043  0.00  0.00    +0.000 A 
ATOM     13  C   UNL     1       8.099 -22.692 -15.971  0.00  0.00    +0.000 A 
ATOM     14  C   UNL     1       7.975 -21.382 -16.087  0.00  0.00    +0.000 A 
ATOM     15  C   UNL     1       7.823 -20.895 -17.354  0.00  0.00    +0.000 A 
ATOM     16  C   UNL     1       7.967 -21.715 -18.448  0.00  0.00    +0.000 A 
BRANCH  13  17
ATOM     17  O   UNL     1       7.926 -23.261 -14.681  0.00  0.00    +0.000 OA
ATOM     18  H   UNL     1       7.149 -23.864 -14.502  0.00  0.00    +0.000 HD
ENDBRANCH  13  17
BRANCH  15  19
ATOM     19  O   UNL     1       7.514 -19.522 -17.545  0.00  0.00    +0.000 OA
ATOM     20  H   UNL     1       7.544 -18.890 -16.770  0.00  0.00    +0.000 HD
ENDBRANCH  15  19
ENDBRANCH   2  11
TORSDOF 5
ENDMDL
MODEL 5
REMARK VINA RESULT:    -5.720      2.573      3.660
REMARK INTER + INTRA:          -7.576
REMARK INTER:                  -7.058
REMARK INTRA:                  -0.518
REMARK UNBOUND:                -0.518
REMARK  Name = 
REMARK  6 active torsions:
REMARK  status: ('A' for Active; 'I' for Inactive)
REMARK    1  A    between atoms: C_1  and  O_2
REMARK    2  A    between atoms: O_2  and  C_3
REMARK    3  A    between atoms: C_6  and  C_7
REMARK    4  A    between atoms: C_8  and  C_9
REMARK    5  A    between atoms: C_11  and  O_12
REMARK    6  A    between atoms: C_14  and  O_15
REMARK                            x       y       z     vdW  Elec       q    Type
REMARK                         _______ _______ _______ _____ _____    ______ ____
ROOT
ATOM      1  C   UNL     1      13.948 -23.510 -23.029  0.00  0.00    +0.000 C 
ATOM      2  C   UNL     1      15.054 -23.308 -22.263  0.00  0.00    +0.000 C 
ENDROOT
BRANCH   1   6
ATOM      3  C   UNL     1      10.162 -22.902 -21.146  0.00  0.00    +0.000 A 
ATOM      4  C   UNL     1      10.919 -21.795 -21.491  0.00  0.00    +0.000 A 
ATOM      5  C   UNL     1      12.041 -22.095 -22.299  0.00  0.00    +0.000 A 
ATOM      6  C   UNL     1      12.564 -23.301 -22.435  0.00  0.00    +0.000 A 
ATOM      7  C   UNL     1      11.794 -24.348 -22.013  0.00  0.00    +0.000 A 
ATOM      8  C   UNL     1      10.621 -24.134 -21.333  0.00  0.00    +0.000 A 
BRANCH   3  10
ATOM      9  C   UNL     1       8.188 -23.837 -20.015  0.00  0.00    +0.000 C 
ATOM     10  O   UNL     1       8.874 -22.726 -20.575  0.00  0.00    +0.000 OA
ENDBRANCH   3  10
ENDBRANCH   1   6
BRANCH   2  11
ATOM     11  C   UNL     1      14.907 -22.872 -20.814  0.00  0.00    +0.000 A 
ATOM     12  C   UNL     1      14.442 -23.767 -19.867  0.00  0.00    +0.000 A 
ATOM     13  C   UNL     1      14.090 -23.166 -18.635  0.00  0.00    +0.000 A 
ATOM     14  C   UNL     1      14.481 -21.964 -18.250  0.00  0.00    +0.000 A 
ATOM     15  C   UNL     1      14.995 -21.151 -19.220  0.00  0.00    +0.000 A 
ATOM     16  C   UNL     1      15.244 -21.631 -20.484  0.00  0.00    +0.000 A 
BRANCH  13  17
ATOM     17  O   UNL     1      13.260 -23.906 -17.751  0.00  0.00    +0.000 OA
ATOM     18  H   UNL     1      12.537 -23.443 -17.240  0.00  0.00    +0.000 HD
ENDBRANCH  13  17
BRANCH  15  19
ATOM     19  O   UNL     1      15.276 -19.792 -18.919  0.00  0.00    +0.000 OA
ATOM     20  H   UNL     1      14.534 -19.124 -18.885  0.00  0.00    +0.000 HD
ENDBRANCH  15  19
ENDBRANCH   2  11
TORSDOF 5
ENDMDL
