MODEL 1
REMARK VINA RESULT:    -6.492      0.000      0.000
REMARK INTER + INTRA:          -9.369
REMARK INTER:                  -8.821
REMARK INTRA:                  -0.547
REMARK UNBOUND:                -0.600
REMARK  Name = 
REMARK  9 active torsions:
REMARK  status: ('A' for Active; 'I' for Inactive)
REMARK    1  A    between atoms: C_1  and  O_2
REMARK    2  A    between atoms: O_2  and  C_3
REMARK    3  A    between atoms: C_6  and  C_7
REMARK    4  A    between atoms: C_7  and  C_9
REMARK    5  A    between atoms: C_10  and  C_11
REMARK    6  A    between atoms: C_17  and  O_18
REMARK    7  A    between atoms: O_18  and  C_19
REMARK    8  A    between atoms: C_20  and  O_21
REMARK    9  A    between atoms: O_21  and  C_22
REMARK                            x       y       z     vdW  Elec       q    Type
REMARK                         _______ _______ _______ _____ _____    ______ ____
ROOT
ATOM      1  C   UNL     1      15.206 -22.892 -22.910  0.00  0.00    +0.000 A 
ATOM      2  C   UNL     1      15.675 -23.502 -24.063  0.00  0.00    +0.000 A 
ATOM      3  C   UNL     1      17.037 -23.881 -23.997  0.00  0.00    +0.000 A 
ATOM      4  C   UNL     1      17.904 -23.409 -23.119  0.00  0.00    +0.000 A 
ATOM      5  C   UNL     1      17.380 -22.758 -22.037  0.00  0.00    +0.000 A 
ATOM      6  C   UNL     1      16.039 -22.467 -21.967  0.00  0.00    +0.000 A 
ENDROOT
BRANCH   1   8
ATOM      7  C   UNL     1      12.885 -22.810 -23.716  0.00  0.00    +0.000 C 
ATOM      8  O   UNL     1      13.844 -22.547 -22.704  0.00  0.00    +0.000 OA
ENDBRANCH   1   8
BRANCH   4   9
ATOM      9  C   UNL     1      19.403 -23.582 -23.302  0.00  0.00    +0.000 C 
ATOM     10  O   UNL     1      20.014 -24.515 -22.691  0.00  0.00    +0.000 OA
BRANCH   9  11
ATOM     11  C   UNL     1      20.171 -22.640 -24.214  0.00  0.00    +0.000 C 
ATOM     12  C   UNL     1      19.511 -21.668 -24.900  0.00  0.00    +0.000 C 
BRANCH  12  13
ATOM     13  C   UNL     1      20.279 -20.726 -25.813  0.00  0.00    +0.000 A 
ATOM     14  C   UNL     1      19.889 -19.400 -25.901  0.00  0.00    +0.000 A 
ATOM     15  C   UNL     1      20.477 -18.700 -26.982  0.00  0.00    +0.000 A 
ATOM     16  C   UNL     1      21.551 -19.102 -27.638  0.00  0.00    +0.000 A 
ATOM     17  C   UNL     1      21.923 -20.404 -27.456  0.00  0.00    +0.000 A 
ATOM     18  C   UNL     1      21.309 -21.190 -26.510  0.00  0.00    +0.000 A 
ENDBRANCH  12  13
ENDBRANCH   9  11
ENDBRANCH   4   9
BRANCH   5  19
ATOM     19  O   UNL     1      18.235 -22.375 -20.969  0.00  0.00    +0.000 OA
ATOM     20  C   UNL     1      18.463 -23.266 -19.888  0.00  0.00    +0.000 C 
ENDBRANCH   5  19
BRANCH   6  21
ATOM     21  O   UNL     1      15.539 -21.706 -20.878  0.00  0.00    +0.000 OA
ATOM     22  C   UNL     1      15.013 -22.363 -19.735  0.00  0.00    +0.000 C 
ENDBRANCH   6  21
TORSDOF 6
ENDMDL
MODEL 2
REMARK VINA RESULT:    -6.476      5.176     10.917
REMARK INTER + INTRA:          -9.348
REMARK INTER:                  -8.763
REMARK INTRA:                  -0.586
REMARK UNBOUND:                -0.600
REMARK  Name = 
REMARK  9 active torsions:
REMARK  status: ('A' for Active; 'I' for Inactive)
REMARK    1  A    between atoms: C_1  and  O_2
REMARK    2  A    between atoms: O_2  and  C_3
REMARK    3  A    between atoms: C_6  and  C_7
REMARK    4  A    between atoms: C_7  and  C_9
REMARK    5  A    between atoms: C_10  and  C_11
REMARK    6  A    between atoms: C_17  and  O_18
REMARK    7  A    between atoms: O_18  and  C_19
REMARK    8  A    between atoms: C_20  and  O_21
REMARK    9  A    between atoms: O_21  and  C_22
REMARK                            x       y       z     vdW  Elec       q    Type
REMARK                         _______ _______ _______ _____ _____    ______ ____
ROOT
ATOM      1  C   UNL     1      14.995 -21.961 -20.583  0.00  0.00    +0.000 A 
ATOM      2  C   UNL     1      14.593 -20.932 -19.745  0.00  0.00    +0.000 A 
ATOM      3  C   UNL     1      13.206 -20.930 -19.465  0.00  0.00    +0.000 A 
ATOM      4  C   UNL     1      12.297 -21.574 -20.174  0.00  0.00    +0.000 A 
ATOM      5  C   UNL     1      12.763 -22.531 -21.033  0.00  0.00    +0.000 A 
ATOM      6  C   UNL     1      14.110 -22.683 -21.260  0.00  0.00    +0.000 A 
ENDROOT
BRANCH   1   8
ATOM      7  C   UNL     1      17.220 -22.747 -19.894  0.00  0.00    +0.000 C 
ATOM      8  O   UNL     1      16.353 -22.235 -20.894  0.00  0.00    +0.000 OA
ENDBRANCH   1   8
BRANCH   4   9
ATOM      9  C   UNL     1      10.814 -21.269 -20.043  0.00  0.00    +0.000 C 
ATOM     10  O   UNL     1      10.195 -20.702 -20.997  0.00  0.00    +0.000 OA
BRANCH   9  11
ATOM     11  C   UNL     1      10.072 -21.641 -18.769  0.00  0.00    +0.000 C 
ATOM     12  C   UNL     1       8.976 -20.930 -18.388  0.00  0.00    +0.000 C 
BRANCH  12  13
ATOM     13  C   UNL     1       8.235 -21.303 -17.114  0.00  0.00    +0.000 A 
ATOM     14  C   UNL     1       8.710 -22.345 -16.334  0.00  0.00    +0.000 A 
ATOM     15  C   UNL     1       7.794 -22.787 -15.350  0.00  0.00    +0.000 A 
ATOM     16  C   UNL     1       6.749 -22.094 -14.933  0.00  0.00    +0.000 A 
ATOM     17  C   UNL     1       6.373 -21.036 -15.711  0.00  0.00    +0.000 A 
ATOM     18  C   UNL     1       7.147 -20.624 -16.770  0.00  0.00    +0.000 A 
ENDBRANCH  12  13
ENDBRANCH   9  11
ENDBRANCH   4   9
BRANCH   5  19
ATOM     19  O   UNL     1      11.842 -23.381 -21.700  0.00  0.00    +0.000 OA
ATOM     20  C   UNL     1      11.397 -24.576 -21.076  0.00  0.00    +0.000 C 
ENDBRANCH   5  19
BRANCH   6  21
ATOM     21  O   UNL     1      14.559 -23.619 -22.228  0.00  0.00    +0.000 OA
ATOM     22  C   UNL     1      14.650 -23.241 -23.594  0.00  0.00    +0.000 C 
ENDBRANCH   6  21
TORSDOF 6
ENDMDL
MODEL 3
REMARK VINA RESULT:    -6.449      3.669      8.729
REMARK INTER + INTRA:          -9.311
REMARK INTER:                  -8.670
REMARK INTRA:                  -0.641
REMARK UNBOUND:                -0.600
REMARK  Name = 
REMARK  9 active torsions:
REMARK  status: ('A' for Active; 'I' for Inactive)
REMARK    1  A    between atoms: C_1  and  O_2
REMARK    2  A    between atoms: O_2  and  C_3
REMARK    3  A    between atoms: C_6  and  C_7
REMARK    4  A    between atoms: C_7  and  C_9
REMARK    5  A    between atoms: C_10  and  C_11
REMARK    6  A    between atoms: C_17  and  O_18
REMARK    7  A    between atoms: O_18  and  C_19
REMARK    8  A    between atoms: C_20  and  O_21
REMARK    9  A    between atoms: O_21  and  C_22
REMARK                            x       y       z     vdW  Elec       q    Type
REMARK                         _______ _______ _______ _____ _____    ______ ____
ROOT
ATOM      1  C   UNL     1      16.752 -22.543 -22.600  0.00  0.00    +0.000 A 
ATOM      2  C   UNL     1      15.602 -22.919 -23.276  0.00  0.00    +0.000 A 
ATOM      3  C   UNL     1      14.455 -23.004 -22.452  0.00  0.00    +0.000 A 
ATOM      4  C   UNL     1      14.484 -23.089 -21.134  0.00  0.00    +0.000 A 
ATOM      5  C   UNL     1      15.669 -22.771 -20.530  0.00  0.00    +0.000 A 
ATOM      6  C   UNL     1      16.803 -22.545 -21.273  0.00  0.00    +0.000 A 
ENDROOT
BRANCH   1   8
ATOM      7  C   UNL     1      18.627 -23.280 -24.009  0.00  0.00    +0.000 C 
ATOM      8  O   UNL     1      17.987 -22.270 -23.245  0.00  0.00    +0.000 OA
ENDBRANCH   1   8
BRANCH   4   9
ATOM      9  C   UNL     1      13.266 -23.517 -20.332  0.00  0.00    +0.000 C 
ATOM     10  O   UNL     1      13.226 -24.673 -19.803  0.00  0.00    +0.000 OA
BRANCH   9  11
ATOM     11  C   UNL     1      12.094 -22.564 -20.163  0.00  0.00    +0.000 C 
ATOM     12  C   UNL     1      11.295 -22.655 -19.065  0.00  0.00    +0.000 C 
BRANCH  12  13
ATOM     13  C   UNL     1      10.124 -21.701 -18.897  0.00  0.00    +0.000 A 
ATOM     14  C   UNL     1       9.761 -21.291 -17.624  0.00  0.00    +0.000 A 
ATOM     15  C   UNL     1       8.499 -20.652 -17.565  0.00  0.00    +0.000 A 
ATOM     16  C   UNL     1       7.865 -20.151 -18.609  0.00  0.00    +0.000 A 
ATOM     17  C   UNL     1       8.314 -20.541 -19.840  0.00  0.00    +0.000 A 
ATOM     18  C   UNL     1       9.468 -21.277 -19.970  0.00  0.00    +0.000 A 
ENDBRANCH  12  13
ENDBRANCH   9  11
ENDBRANCH   4   9
BRANCH   5  19
ATOM     19  O   UNL     1      15.729 -22.672 -19.115  0.00  0.00    +0.000 OA
ATOM     20  C   UNL     1      15.506 -21.422 -18.480  0.00  0.00    +0.000 C 
ENDBRANCH   5  19
BRANCH   6  21
ATOM     21  O   UNL     1      18.039 -22.310 -20.616  0.00  0.00    +0.000 OA
ATOM     22  C   UNL     1      18.831 -23.406 -20.182  0.00  0.00    +0.000 C 
ENDBRANCH   6  21
TORSDOF 6
ENDMDL
MODEL 4
REMARK VINA RESULT:    -6.320      1.239      2.890
REMARK INTER + INTRA:          -9.136
REMARK INTER:                  -8.688
REMARK INTRA:                  -0.448
REMARK UNBOUND:                -0.600
REMARK  Name = 
REMARK  9 active torsions:
REMARK  status: ('A' for Active; 'I' for Inactive)
REMARK    1  A    between atoms: C_1  and  O_2
REMARK    2  A    between atoms: O_2  and  C_3
REMARK    3  A    between atoms: C_6  and  C_7
REMARK    4  A    between atoms: C_7  and  C_9
REMARK    5  A    between atoms: C_10  and  C_11
REMARK    6  A    between atoms: C_17  and  O_18
REMARK    7  A    between atoms: O_18  and  C_19
REMARK    8  A    between atoms: C_20  and  O_21
REMARK    9  A    between atoms: O_21  and  C_22
REMARK                            x       y       z     vdW  Elec       q    Type
REMARK                         _______ _______ _______ _____ _____    ______ ____
ROOT
ATOM      1  C   UNL     1      15.175 -22.339 -20.249  0.00  0.00    +0.000 A 
ATOM      2  C   UNL     1      16.502 -22.484 -19.873  0.00  0.00    +0.000 A 
ATOM      3  C   UNL     1      17.407 -22.503 -20.960  0.00  0.00    +0.000 A 
ATOM      4  C   UNL     1      17.065 -22.731 -22.216  0.00  0.00    +0.000 A 
ATOM      5  C   UNL     1      15.732 -22.638 -22.510  0.00  0.00    +0.000 A 
ATOM      6  C   UNL     1      14.798 -22.488 -21.514  0.00  0.00    +0.000 A 
ENDROOT
BRANCH   1   8
ATOM      7  C   UNL     1      13.843 -23.168 -18.357  0.00  0.00    +0.000 C 
ATOM      8  O   UNL     1      14.112 -22.165 -19.325  0.00  0.00    +0.000 OA
ENDBRANCH   1   8
BRANCH   4   9
ATOM      9  C   UNL     1      18.097 -23.076 -23.277  0.00  0.00    +0.000 C 
ATOM     10  O   UNL     1      18.526 -24.267 -23.383  0.00  0.00    +0.000 OA
BRANCH   9  11
ATOM     11  C   UNL     1      18.617 -21.995 -24.211  0.00  0.00    +0.000 C 
ATOM     12  C   UNL     1      19.774 -22.189 -24.900  0.00  0.00    +0.000 C 
BRANCH  12  13
ATOM     13  C   UNL     1      20.294 -21.107 -25.833  0.00  0.00    +0.000 A 
ATOM     14  C   UNL     1      21.411 -21.363 -26.610  0.00  0.00    +0.000 A 
ATOM     15  C   UNL     1      21.970 -20.207 -27.208  0.00  0.00    +0.000 A 
ATOM     16  C   UNL     1      21.339 -19.056 -27.346  0.00  0.00    +0.000 A 
ATOM     17  C   UNL     1      20.204 -18.892 -26.602  0.00  0.00    +0.000 A 
ATOM     18  C   UNL     1      19.670 -19.937 -25.887  0.00  0.00    +0.000 A 
ENDBRANCH  12  13
ENDBRANCH   9  11
ENDBRANCH   4   9
BRANCH   5  19
ATOM     19  O   UNL     1      15.308 -22.700 -23.863  0.00  0.00    +0.000 OA
ATOM     20  C   UNL     1      15.086 -23.958 -24.481  0.00  0.00    +0.000 C 
ENDBRANCH   5  19
BRANCH   6  21
ATOM     21  O   UNL     1      13.416 -22.491 -21.839  0.00  0.00    +0.000 OA
ATOM     22  C   UNL     1      12.690 -23.712 -21.843  0.00  0.00    +0.000 C 
ENDBRANCH   6  21
TORSDOF 6
ENDMDL
MODEL 5
REMARK VINA RESULT:    -6.214      5.019     10.353
REMARK INTER + INTRA:          -8.994
REMARK INTER:                  -8.394
REMARK INTRA:                  -0.600
REMARK UNBOUND:                -0.600
REMARK  Name = 
REMARK  9 active torsions:
REMARK  status: ('A' for Active; 'I' for Inactive)
REMARK    1  A    between atoms: C_1  and  O_2
REMARK    2  A    between atoms: O_2  and  C_3
REMARK    3  A    between atoms: C_6  and  C_7
REMARK    4  A    between atoms: C_7  and  C_9
REMARK    5  A    between atoms: C_10  and  C_11
REMARK    6  A    between atoms: C_17  and  O_18
REMARK    7  A    between atoms: O_18  and  C_19
REMARK    8  A    between atoms: C_20  and  O_21
REMARK    9  A    between atoms: O_21  and  C_22
REMARK                            x       y       z     vdW  Elec       q    Type
REMARK                         _______ _______ _______ _____ _____    ______ ____
ROOT
ATOM      1  C   UNL     1      12.369 -24.337 -22.634  0.00  0.00    +0.000 A 
ATOM      2  C   UNL     1      11.517 -25.122 -21.872  0.00  0.00    +0.000 A 
ATOM      3  C   UNL     1      11.323 -24.644 -20.555  0.00  0.00    +0.000 A 
ATOM      4  C   UNL     1      12.112 -23.776 -19.949  0.00  0.00    +0.000 A 
ATOM      5  C   UNL     1      12.978 -23.081 -20.747  0.00  0.00    +0.000 A 
ATOM      6  C   UNL     1      13.128 -23.402 -22.075  0.00  0.00    +0.000 A 
ENDROOT
BRANCH   1   8
ATOM      7  C   UNL     1      12.332 -25.819 -24.595  0.00  0.00    +0.000 C 
ATOM      8  O   UNL     1      12.606 -24.552 -24.017  0.00  0.00    +0.000 OA
ENDBRANCH   1   8
BRANCH   4   9
ATOM      9  C   UNL     1      12.060 -23.559 -18.445  0.00  0.00    +0.000 C 
ATOM     10  O   UNL     1      13.122 -23.649 -17.752  0.00  0.00    +0.000 OA
BRANCH   9  11
ATOM     11  C   UNL     1      10.737 -23.236 -17.770  0.00  0.00    +0.000 C 
ATOM     12  C   UNL     1      10.186 -21.999 -17.907  0.00  0.00    +0.000 C 
BRANCH  12  13
ATOM     13  C   UNL     1       8.863 -21.677 -17.231  0.00  0.00    +0.000 A 
ATOM     14  C   UNL     1       8.169 -20.540 -17.610  0.00  0.00    +0.000 A 
ATOM     15  C   UNL     1       7.121 -20.188 -16.726  0.00  0.00    +0.000 A 
ATOM     16  C   UNL     1       6.585 -21.004 -15.837  0.00  0.00    +0.000 A 
ATOM     17  C   UNL     1       7.286 -22.144 -15.558  0.00  0.00    +0.000 A 
ATOM     18  C   UNL     1       8.396 -22.489 -16.291  0.00  0.00    +0.000 A 
ENDBRANCH  12  13
ENDBRANCH   9  11
ENDBRANCH   4   9
BRANCH   5  19
ATOM     19  O   UNL     1      13.734 -22.013 -20.196  0.00  0.00    +0.000 OA
ATOM     20  C   UNL     1      13.201 -20.698 -20.185  0.00  0.00    +0.000 C 
ENDBRANCH   5  19
BRANCH   6  21
ATOM     21  O   UNL     1      14.103 -22.728 -22.856  0.00  0.00    +0.000 OA
ATOM     22  C   UNL     1      15.452 -23.171 -22.843  0.00  0.00    +0.000 C 
ENDBRANCH   6  21
TORSDOF 6
ENDMDL
