MODEL 1
REMARK VINA RESULT:    -6.762      0.000      0.000
REMARK INTER + INTRA:           9.192
REMARK INTER:                  -7.329
REMARK INTRA:                  16.521
REMARK UNBOUND:                16.547
REMARK  Name = 
REMARK  2 active torsions:
REMARK  status: ('A' for Active; 'I' for Inactive)
REMARK    1  A    between atoms: C_4  and  C_7
REMARK    2  A    between atoms: C_12  and  O_18
REMARK                            x       y       z     vdW  Elec       q    Type
REMARK                         _______ _______ _______ _____ _____    ______ ____
ROOT
ATOM      1  C   UNL     1      19.383 -22.078 -25.689  0.00  0.00    +0.000 A 
ATOM      2  C   UNL     1      19.203 -20.759 -25.140  0.00  0.00    +0.000 A 
ATOM      3  C   UNL     1      19.525 -19.600 -25.931  0.00  0.00    +0.000 A 
ATOM      4  O   UNL     1      19.364 -18.436 -25.447  0.00  0.00    +0.000 OA
ATOM      5  C   UNL     1      20.056 -19.768 -27.346  0.00  0.00    +0.000 A 
ATOM      6  C   UNL     1      21.139 -19.012 -27.759  0.00  0.00    +0.000 A 
ATOM      7  C   UNL     1      21.355 -19.036 -29.157  0.00  0.00    +0.000 A 
ATOM      8  C   UNL     1      20.851 -19.939 -29.977  0.00  0.00    +0.000 A 
ATOM      9  C   UNL     1      19.827 -20.702 -29.487  0.00  0.00    +0.000 A 
ATOM     10  C   UNL     1      19.471 -20.638 -28.162  0.00  0.00    +0.000 A 
ATOM     11  O   UNL     1      19.083 -23.161 -24.949  0.00  0.00    +0.000 OA
ENDROOT
BRANCH   1  15
ATOM     12  C   UNL     1      20.893 -22.785 -29.621  0.00  0.00    +0.000 A 
ATOM     13  C   UNL     1      19.537 -22.948 -29.391  0.00  0.00    +0.000 A 
ATOM     14  C   UNL     1      19.111 -22.480 -28.125  0.00  0.00    +0.000 A 
ATOM     15  C   UNL     1      19.914 -22.247 -27.103  0.00  0.00    +0.000 A 
ATOM     16  C   UNL     1      21.250 -22.165 -27.386  0.00  0.00    +0.000 A 
ATOM     17  C   UNL     1      21.728 -22.480 -28.635  0.00  0.00    +0.000 A 
ENDBRANCH   1  15
BRANCH   6  18
ATOM     18  O   UNL     1      21.959 -18.277 -26.861  0.00  0.00    +0.000 OA
ATOM     19  H   UNL     1      22.823 -18.667 -26.541  0.00  0.00    +0.000 HD
ENDBRANCH   6  18
TORSDOF 2
ENDMDL
MODEL 2
REMARK VINA RESULT:    -6.744      6.675      9.418
REMARK INTER + INTRA:           9.212
REMARK INTER:                  -7.316
REMARK INTRA:                  16.528
REMARK UNBOUND:                16.547
REMARK  Name = 
REMARK  2 active torsions:
REMARK  status: ('A' for Active; 'I' for Inactive)
REMARK    1  A    between atoms: C_4  and  C_7
REMARK    2  A    between atoms: C_12  and  O_18
REMARK                            x       y       z     vdW  Elec       q    Type
REMARK                         _______ _______ _______ _____ _____    ______ ____
ROOT
ATOM      1  C   UNL     1      16.407 -22.525 -22.757  0.00  0.00    +0.000 A 
ATOM      2  C   UNL     1      17.629 -22.617 -22.001  0.00  0.00    +0.000 A 
ATOM      3  C   UNL     1      17.582 -22.681 -20.563  0.00  0.00    +0.000 A 
ATOM      4  O   UNL     1      18.661 -22.763 -19.896  0.00  0.00    +0.000 OA
ATOM      5  C   UNL     1      16.244 -22.651 -19.844  0.00  0.00    +0.000 A 
ATOM      6  C   UNL     1      16.088 -21.840 -18.732  0.00  0.00    +0.000 A 
ATOM      7  C   UNL     1      14.917 -22.113 -17.984  0.00  0.00    +0.000 A 
ATOM      8  C   UNL     1      13.879 -22.789 -18.438  0.00  0.00    +0.000 A 
ATOM      9  C   UNL     1      14.078 -23.518 -19.577  0.00  0.00    +0.000 A 
ATOM     10  C   UNL     1      15.246 -23.404 -20.293  0.00  0.00    +0.000 A 
ATOM     11  O   UNL     1      16.450 -22.464 -24.101  0.00  0.00    +0.000 OA
ENDROOT
BRANCH   1  15
ATOM     12  C   UNL     1      12.543 -22.388 -20.943  0.00  0.00    +0.000 A 
ATOM     13  C   UNL     1      12.945 -23.559 -21.563  0.00  0.00    +0.000 A 
ATOM     14  C   UNL     1      14.310 -23.572 -21.934  0.00  0.00    +0.000 A 
ATOM     15  C   UNL     1      15.068 -22.495 -22.038  0.00  0.00    +0.000 A 
ATOM     16  C   UNL     1      14.584 -21.353 -21.464  0.00  0.00    +0.000 A 
ATOM     17  C   UNL     1      13.306 -21.301 -20.961  0.00  0.00    +0.000 A 
ENDBRANCH   1  15
BRANCH   6  18
ATOM     18  O   UNL     1      17.017 -20.828 -18.375  0.00  0.00    +0.000 OA
ATOM     19  H   UNL     1      17.025 -20.463 -17.443  0.00  0.00    +0.000 HD
ENDBRANCH   6  18
TORSDOF 2
ENDMDL
MODEL 3
REMARK VINA RESULT:    -6.460      8.406     11.032
REMARK INTER + INTRA:           9.520
REMARK INTER:                  -7.027
REMARK INTRA:                  16.547
REMARK UNBOUND:                16.547
REMARK  Name = 
REMARK  2 active torsions:
REMARK  status: ('A' for Active; 'I' for Inactive)
REMARK    1  A    between atoms: C_4  and  C_7
REMARK    2  A    between atoms: C_12  and  O_18
REMARK                            x       y       z     vdW  Elec       q    Type
REMARK                         _______ _______ _______ _____ _____    ______ ____
ROOT
ATOM      1  C   UNL     1      11.325 -23.264 -18.761  0.00  0.00    +0.000 A 
ATOM      2  C   UNL     1      10.912 -24.227 -19.749  0.00  0.00    +0.000 A 
ATOM      3  C   UNL     1      11.788 -24.558 -20.843  0.00  0.00    +0.000 A 
ATOM      4  O   UNL     1      11.423 -25.409 -21.714  0.00  0.00    +0.000 OA
ATOM      5  C   UNL     1      13.149 -23.890 -20.955  0.00  0.00    +0.000 A 
ATOM      6  C   UNL     1      13.569 -23.408 -22.184  0.00  0.00    +0.000 A 
ATOM      7  C   UNL     1      14.945 -23.080 -22.230  0.00  0.00    +0.000 A 
ATOM      8  C   UNL     1      15.705 -22.885 -21.168  0.00  0.00    +0.000 A 
ATOM      9  C   UNL     1      15.204 -23.322 -19.973  0.00  0.00    +0.000 A 
ATOM     10  C   UNL     1      13.912 -23.779 -19.874  0.00  0.00    +0.000 A 
ATOM     11  O   UNL     1      10.506 -22.955 -17.739  0.00  0.00    +0.000 OA
ENDROOT
BRANCH   1  15
ATOM     12  C   UNL     1      15.087 -21.247 -18.895  0.00  0.00    +0.000 A 
ATOM     13  C   UNL     1      14.929 -22.302 -18.011  0.00  0.00    +0.000 A 
ATOM     14  C   UNL     1      13.733 -23.034 -18.200  0.00  0.00    +0.000 A 
ATOM     15  C   UNL     1      12.685 -22.596 -18.874  0.00  0.00    +0.000 A 
ATOM     16  C   UNL     1      12.890 -21.509 -19.677  0.00  0.00    +0.000 A 
ATOM     17  C   UNL     1      14.078 -20.819 -19.645  0.00  0.00    +0.000 A 
ENDBRANCH   1  15
BRANCH   6  18
ATOM     18  O   UNL     1      12.700 -23.258 -23.296  0.00  0.00    +0.000 OA
ATOM     19  H   UNL     1      13.077 -23.060 -24.201  0.00  0.00    +0.000 HD
ENDBRANCH   6  18
TORSDOF 2
ENDMDL
