MODEL 1
REMARK VINA RESULT:    -6.477      0.000      0.000
REMARK INTER + INTRA:          -8.639
REMARK INTER:                  -8.183
REMARK INTRA:                  -0.457
REMARK UNBOUND:                -0.459
REMARK  Name = 
REMARK  7 active torsions:
REMARK  status: ('A' for Active; 'I' for Inactive)
REMARK    1  A    between atoms: C_1  and  O_2
REMARK    2  A    between atoms: O_2  and  C_3
REMARK    3  A    between atoms: C_5  and  C_6
REMARK    4  A    between atoms: C_7  and  C_8
REMARK    5  A    between atoms: C_11  and  O_12
REMARK    6  A    between atoms: C_16  and  O_17
REMARK    7  A    between atoms: O_17  and  C_18
REMARK                            x       y       z     vdW  Elec       q    Type
REMARK                         _______ _______ _______ _____ _____    ______ ____
ROOT
ATOM      1  C   UNL     1      12.897 -23.873 -20.971  0.00  0.00    +0.000 A 
ATOM      2  C   UNL     1      11.805 -23.980 -20.125  0.00  0.00    +0.000 A 
ATOM      3  C   UNL     1      12.012 -23.409 -18.847  0.00  0.00    +0.000 A 
ATOM      4  C   UNL     1      13.197 -23.124 -18.337  0.00  0.00    +0.000 A 
ATOM      5  C   UNL     1      14.246 -23.101 -19.213  0.00  0.00    +0.000 A 
ATOM      6  C   UNL     1      14.092 -23.520 -20.512  0.00  0.00    +0.000 A 
ENDROOT
BRANCH   1   8
ATOM      7  C   UNL     1      13.581 -23.854 -23.333  0.00  0.00    +0.000 C 
ATOM      8  O   UNL     1      12.699 -24.295 -22.312  0.00  0.00    +0.000 OA
ENDBRANCH   1   8
BRANCH   3   9
ATOM      9  C   UNL     1      10.787 -23.103 -18.002  0.00  0.00    +0.000 C 
ATOM     10  C   UNL     1      10.173 -21.893 -18.108  0.00  0.00    +0.000 C 
BRANCH  10  11
ATOM     11  C   UNL     1       8.947 -21.587 -17.263  0.00  0.00    +0.000 A 
ATOM     12  C   UNL     1       8.575 -22.391 -16.198  0.00  0.00    +0.000 A 
ATOM     13  C   UNL     1       7.292 -22.099 -15.680  0.00  0.00    +0.000 A 
ATOM     14  C   UNL     1       6.634 -20.975 -15.898  0.00  0.00    +0.000 A 
ATOM     15  C   UNL     1       7.092 -20.191 -16.921  0.00  0.00    +0.000 A 
ATOM     16  C   UNL     1       8.271 -20.484 -17.562  0.00  0.00    +0.000 A 
BRANCH  14  17
ATOM     17  O   UNL     1       5.511 -20.601 -15.113  0.00  0.00    +0.000 OA
ATOM     18  H   UNL     1       5.569 -20.625 -14.115  0.00  0.00    +0.000 HD
ENDBRANCH  14  17
ENDBRANCH  10  11
ENDBRANCH   3   9
BRANCH   5  19
ATOM     19  O   UNL     1      15.515 -22.637 -18.774  0.00  0.00    +0.000 OA
ATOM     20  C   UNL     1      15.676 -21.286 -18.369  0.00  0.00    +0.000 C 
ENDBRANCH   5  19
TORSDOF 5
ENDMDL
MODEL 2
REMARK VINA RESULT:    -6.451      4.713      7.657
REMARK INTER + INTRA:          -8.607
REMARK INTER:                  -8.129
REMARK INTRA:                  -0.478
REMARK UNBOUND:                -0.459
REMARK  Name = 
REMARK  7 active torsions:
REMARK  status: ('A' for Active; 'I' for Inactive)
REMARK    1  A    between atoms: C_1  and  O_2
REMARK    2  A    between atoms: O_2  and  C_3
REMARK    3  A    between atoms: C_5  and  C_6
REMARK    4  A    between atoms: C_7  and  C_8
REMARK    5  A    between atoms: C_11  and  O_12
REMARK    6  A    between atoms: C_16  and  O_17
REMARK    7  A    between atoms: O_17  and  C_18
REMARK                            x       y       z     vdW  Elec       q    Type
REMARK                         _______ _______ _______ _____ _____    ______ ____
ROOT
ATOM      1  C   UNL     1      20.069 -22.997 -23.186  0.00  0.00    +0.000 A 
ATOM      2  C   UNL     1      19.029 -22.793 -22.293  0.00  0.00    +0.000 A 
ATOM      3  C   UNL     1      17.759 -22.685 -22.907  0.00  0.00    +0.000 A 
ATOM      4  C   UNL     1      17.566 -22.432 -24.189  0.00  0.00    +0.000 A 
ATOM      5  C   UNL     1      18.650 -22.585 -25.009  0.00  0.00    +0.000 A 
ATOM      6  C   UNL     1      19.900 -22.822 -24.491  0.00  0.00    +0.000 A 
ENDROOT
BRANCH   1   8
ATOM      7  C   UNL     1      21.679 -22.724 -21.347  0.00  0.00    +0.000 C 
ATOM      8  O   UNL     1      21.344 -23.259 -22.619  0.00  0.00    +0.000 OA
ENDBRANCH   1   8
BRANCH   3   9
ATOM      9  C   UNL     1      16.532 -22.874 -22.032  0.00  0.00    +0.000 C 
ATOM     10  C   UNL     1      16.642 -22.789 -20.678  0.00  0.00    +0.000 C 
BRANCH  10  11
ATOM     11  C   UNL     1      15.415 -22.978 -19.802  0.00  0.00    +0.000 A 
ATOM     12  C   UNL     1      15.290 -22.349 -18.575  0.00  0.00    +0.000 A 
ATOM     13  C   UNL     1      14.208 -22.821 -17.796  0.00  0.00    +0.000 A 
ATOM     14  C   UNL     1      13.188 -23.512 -18.270  0.00  0.00    +0.000 A 
ATOM     15  C   UNL     1      13.348 -24.052 -19.517  0.00  0.00    +0.000 A 
ATOM     16  C   UNL     1      14.442 -23.741 -20.287  0.00  0.00    +0.000 A 
BRANCH  14  17
ATOM     17  O   UNL     1      11.990 -23.686 -17.527  0.00  0.00    +0.000 OA
ATOM     18  H   UNL     1      11.146 -23.243 -17.829  0.00  0.00    +0.000 HD
ENDBRANCH  14  17
ENDBRANCH  10  11
ENDBRANCH   3   9
BRANCH   5  19
ATOM     19  O   UNL     1      18.481 -22.498 -26.416  0.00  0.00    +0.000 OA
ATOM     20  C   UNL     1      19.615 -22.385 -27.263  0.00  0.00    +0.000 C 
ENDBRANCH   5  19
TORSDOF 5
ENDMDL
MODEL 3
REMARK VINA RESULT:    -6.393      1.719      2.595
REMARK INTER + INTRA:          -8.533
REMARK INTER:                  -8.077
REMARK INTRA:                  -0.456
REMARK UNBOUND:                -0.459
REMARK  Name = 
REMARK  7 active torsions:
REMARK  status: ('A' for Active; 'I' for Inactive)
REMARK    1  A    between atoms: C_1  and  O_2
REMARK    2  A    between atoms: O_2  and  C_3
REMARK    3  A    between atoms: C_5  and  C_6
REMARK    4  A    between atoms: C_7  and  C_8
REMARK    5  A    between atoms: C_11  and  O_12
REMARK    6  A    between atoms: C_16  and  O_17
REMARK    7  A    between atoms: O_17  and  C_18
REMARK                            x       y       z     vdW  Elec       q    Type
REMARK                         _______ _______ _______ _____ _____    ______ ____
ROOT
ATOM      1  C   UNL     1      14.984 -23.164 -21.631  0.00  0.00    +0.000 A 
ATOM      2  C   UNL     1      13.934 -23.512 -20.795  0.00  0.00    +0.000 A 
ATOM      3  C   UNL     1      14.127 -23.133 -19.445  0.00  0.00    +0.000 A 
ATOM      4  C   UNL     1      15.294 -22.818 -18.915  0.00  0.00    +0.000 A 
ATOM      5  C   UNL     1      16.309 -22.553 -19.793  0.00  0.00    +0.000 A 
ATOM      6  C   UNL     1      16.154 -22.773 -21.139  0.00  0.00    +0.000 A 
ENDROOT
BRANCH   1   8
ATOM      7  C   UNL     1      15.861 -23.212 -23.927  0.00  0.00    +0.000 C 
ATOM      8  O   UNL     1      14.784 -23.385 -23.019  0.00  0.00    +0.000 OA
ENDBRANCH   1   8
BRANCH   3   9
ATOM      9  C   UNL     1      12.905 -23.087 -18.543  0.00  0.00    +0.000 C 
ATOM     10  C   UNL     1      11.692 -22.749 -19.057  0.00  0.00    +0.000 C 
BRANCH  10  11
ATOM     11  C   UNL     1      10.470 -22.702 -18.154  0.00  0.00    +0.000 A 
ATOM     12  C   UNL     1       9.852 -21.507 -17.823  0.00  0.00    +0.000 A 
ATOM     13  C   UNL     1       8.890 -21.625 -16.793  0.00  0.00    +0.000 A 
ATOM     14  C   UNL     1       8.339 -22.761 -16.409  0.00  0.00    +0.000 A 
ATOM     15  C   UNL     1       8.958 -23.907 -16.825  0.00  0.00    +0.000 A 
ATOM     16  C   UNL     1       9.990 -23.865 -17.730  0.00  0.00    +0.000 A 
BRANCH  14  17
ATOM     17  O   UNL     1       7.167 -22.791 -15.608  0.00  0.00    +0.000 OA
ATOM     18  H   UNL     1       6.465 -22.089 -15.722  0.00  0.00    +0.000 HD
ENDBRANCH  14  17
ENDBRANCH  10  11
ENDBRANCH   3   9
BRANCH   5  19
ATOM     19  O   UNL     1      17.542 -22.043 -19.305  0.00  0.00    +0.000 OA
ATOM     20  C   UNL     1      18.769 -22.550 -19.808  0.00  0.00    +0.000 C 
ENDBRANCH   5  19
TORSDOF 5
ENDMDL
MODEL 4
REMARK VINA RESULT:    -6.313      1.732      3.484
REMARK INTER + INTRA:          -8.433
REMARK INTER:                  -8.011
REMARK INTRA:                  -0.422
REMARK UNBOUND:                -0.459
REMARK  Name = 
REMARK  7 active torsions:
REMARK  status: ('A' for Active; 'I' for Inactive)
REMARK    1  A    between atoms: C_1  and  O_2
REMARK    2  A    between atoms: O_2  and  C_3
REMARK    3  A    between atoms: C_5  and  C_6
REMARK    4  A    between atoms: C_7  and  C_8
REMARK    5  A    between atoms: C_11  and  O_12
REMARK    6  A    between atoms: C_16  and  O_17
REMARK    7  A    between atoms: O_17  and  C_18
REMARK                            x       y       z     vdW  Elec       q    Type
REMARK                         _______ _______ _______ _____ _____    ______ ____
ROOT
ATOM      1  C   UNL     1      16.311 -22.405 -19.721  0.00  0.00    +0.000 A 
ATOM      2  C   UNL     1      15.187 -22.197 -18.937  0.00  0.00    +0.000 A 
ATOM      3  C   UNL     1      13.992 -22.701 -19.502  0.00  0.00    +0.000 A 
ATOM      4  C   UNL     1      13.838 -23.010 -20.777  0.00  0.00    +0.000 A 
ATOM      5  C   UNL     1      14.983 -23.133 -21.515  0.00  0.00    +0.000 A 
ATOM      6  C   UNL     1      16.203 -22.786 -20.989  0.00  0.00    +0.000 A 
ENDROOT
BRANCH   1   8
ATOM      7  C   UNL     1      18.769 -22.463 -19.762  0.00  0.00    +0.000 C 
ATOM      8  O   UNL     1      17.558 -22.055 -19.141  0.00  0.00    +0.000 OA
ENDBRANCH   1   8
BRANCH   3   9
ATOM      9  C   UNL     1      12.802 -22.899 -18.578  0.00  0.00    +0.000 C 
ATOM     10  C   UNL     1      11.580 -22.412 -18.928  0.00  0.00    +0.000 C 
BRANCH  10  11
ATOM     11  C   UNL     1      10.390 -22.610 -18.003  0.00  0.00    +0.000 A 
ATOM     12  C   UNL     1      10.035 -23.863 -17.529  0.00  0.00    +0.000 A 
ATOM     13  C   UNL     1       8.776 -23.895 -16.885  0.00  0.00    +0.000 A 
ATOM     14  C   UNL     1       8.137 -22.832 -16.434  0.00  0.00    +0.000 A 
ATOM     15  C   UNL     1       8.580 -21.619 -16.887  0.00  0.00    +0.000 A 
ATOM     16  C   UNL     1       9.730 -21.520 -17.632  0.00  0.00    +0.000 A 
BRANCH  14  17
ATOM     17  O   UNL     1       7.049 -22.940 -15.527  0.00  0.00    +0.000 OA
ATOM     18  H   UNL     1       7.166 -23.428 -14.663  0.00  0.00    +0.000 HD
ENDBRANCH  14  17
ENDBRANCH  10  11
ENDBRANCH   3   9
BRANCH   5  19
ATOM     19  O   UNL     1      14.909 -23.628 -22.844  0.00  0.00    +0.000 OA
ATOM     20  C   UNL     1      15.842 -23.187 -23.819  0.00  0.00    +0.000 C 
ENDBRANCH   5  19
TORSDOF 5
ENDMDL
MODEL 5
REMARK VINA RESULT:    -6.169      1.192      3.068
REMARK INTER + INTRA:          -8.251
REMARK INTER:                  -7.792
REMARK INTRA:                  -0.459
REMARK UNBOUND:                -0.459
REMARK  Name = 
REMARK  7 active torsions:
REMARK  status: ('A' for Active; 'I' for Inactive)
REMARK    1  A    between atoms: C_1  and  O_2
REMARK    2  A    between atoms: O_2  and  C_3
REMARK    3  A    between atoms: C_5  and  C_6
REMARK    4  A    between atoms: C_7  and  C_8
REMARK    5  A    between atoms: C_11  and  O_12
REMARK    6  A    between atoms: C_16  and  O_17
REMARK    7  A    between atoms: O_17  and  C_18
REMARK                            x       y       z     vdW  Elec       q    Type
REMARK                         _______ _______ _______ _____ _____    ______ ____
ROOT
ATOM      1  C   UNL     1      13.835 -22.995 -19.007  0.00  0.00    +0.000 A 
ATOM      2  C   UNL     1      12.804 -22.128 -18.678  0.00  0.00    +0.000 A 
ATOM      3  C   UNL     1      11.521 -22.599 -19.043  0.00  0.00    +0.000 A 
ATOM      4  C   UNL     1      11.297 -23.561 -19.919  0.00  0.00    +0.000 A 
ATOM      5  C   UNL     1      12.371 -24.339 -20.255  0.00  0.00    +0.000 A 
ATOM      6  C   UNL     1      13.637 -24.019 -19.828  0.00  0.00    +0.000 A 
ENDROOT
BRANCH   1   8
ATOM      7  C   UNL     1      16.192 -22.456 -19.454  0.00  0.00    +0.000 C 
ATOM      8  O   UNL     1      15.127 -22.645 -18.534  0.00  0.00    +0.000 OA
ENDBRANCH   1   8
BRANCH   3   9
ATOM      9  C   UNL     1      10.316 -21.951 -18.382  0.00  0.00    +0.000 C 
ATOM     10  C   UNL     1       9.582 -22.648 -17.473  0.00  0.00    +0.000 C 
BRANCH  10  11
ATOM     11  C   UNL     1       8.376 -22.000 -16.812  0.00  0.00    +0.000 A 
ATOM     12  C   UNL     1       7.766 -20.878 -17.348  0.00  0.00    +0.000 A 
ATOM     13  C   UNL     1       6.821 -20.272 -16.486  0.00  0.00    +0.000 A 
ATOM     14  C   UNL     1       6.276 -20.863 -15.439  0.00  0.00    +0.000 A 
ATOM     15  C   UNL     1       6.886 -22.006 -14.999  0.00  0.00    +0.000 A 
ATOM     16  C   UNL     1       7.903 -22.586 -15.718  0.00  0.00    +0.000 A 
BRANCH  14  17
ATOM     17  O   UNL     1       5.118 -20.341 -14.804  0.00  0.00    +0.000 OA
ATOM     18  H   UNL     1       4.989 -19.352 -14.734  0.00  0.00    +0.000 HD
ENDBRANCH  14  17
ENDBRANCH  10  11
ENDBRANCH   3   9
BRANCH   5  19
ATOM     19  O   UNL     1      12.175 -25.496 -21.055  0.00  0.00    +0.000 OA
ATOM     20  C   UNL     1      10.897 -25.765 -21.613  0.00  0.00    +0.000 C 
ENDBRANCH   5  19
TORSDOF 5
ENDMDL
