MODEL 1
REMARK VINA RESULT:    -6.081      0.000      0.000
REMARK INTER + INTRA:          12.147
REMARK INTER:                  -7.086
REMARK INTRA:                  19.233
REMARK UNBOUND:                19.294
REMARK  Name = 
REMARK  5 active torsions:
REMARK  status: ('A' for Active; 'I' for Inactive)
REMARK    1  A    between atoms: C_1  and  O_2
REMARK    2  A    between atoms: O_2  and  C_3
REMARK    3  A    between atoms: C_6  and  O_7
REMARK    4  A    between atoms: O_7  and  C_8
REMARK    5  A    between atoms: C_9  and  C_10
REMARK                            x       y       z     vdW  Elec       q    Type
REMARK                         _______ _______ _______ _____ _____    ______ ____
ROOT
ATOM      1  C   UNL     1      13.400 -22.740 -18.807  0.00  0.00    +0.000 A 
ATOM      2  C   UNL     1      14.312 -22.291 -19.828  0.00  0.00    +0.000 A 
ATOM      3  C   UNL     1      13.803 -21.808 -21.086  0.00  0.00    +0.000 A 
ATOM      4  O   UNL     1      14.607 -21.412 -21.986  0.00  0.00    +0.000 OA
ATOM      5  C   UNL     1      12.304 -21.774 -21.336  0.00  0.00    +0.000 A 
ATOM      6  C   UNL     1      11.805 -22.230 -22.544  0.00  0.00    +0.000 A 
ATOM      7  C   UNL     1      10.453 -21.881 -22.775  0.00  0.00    +0.000 A 
ATOM      8  C   UNL     1       9.610 -21.491 -21.836  0.00  0.00    +0.000 A 
ATOM      9  C   UNL     1      10.160 -21.116 -20.642  0.00  0.00    +0.000 A 
ATOM     10  C   UNL     1      11.498 -21.306 -20.391  0.00  0.00    +0.000 A 
ATOM     11  O   UNL     1      13.876 -23.191 -17.632  0.00  0.00    +0.000 OA
ENDROOT
BRANCH   1  16
ATOM     12  C   UNL     1       9.835 -21.653 -18.696  0.00  0.00    +0.000 A 
ATOM     13  C   UNL     1       9.182 -22.609 -19.455  0.00  0.00    +0.000 A 
ATOM     14  C   UNL     1       9.993 -23.713 -19.809  0.00  0.00    +0.000 A 
ATOM     15  C   UNL     1      11.313 -23.716 -19.766  0.00  0.00    +0.000 A 
ATOM     16  C   UNL     1      11.901 -22.706 -19.058  0.00  0.00    +0.000 A 
ATOM     17  C   UNL     1      11.157 -21.660 -18.568  0.00  0.00    +0.000 A 
BRANCH  12  19
ATOM     18  C   UNL     1       7.647 -20.859 -17.899  0.00  0.00    +0.000 C 
ATOM     19  O   UNL     1       9.063 -20.748 -17.920  0.00  0.00    +0.000 OA
ENDBRANCH  12  19
BRANCH  15  20
ATOM     20  O   UNL     1      12.081 -24.715 -20.423  0.00  0.00    +0.000 OA
ATOM     21  C   UNL     1      11.462 -25.582 -21.361  0.00  0.00    +0.000 C 
ENDBRANCH  15  20
ENDBRANCH   1  16
TORSDOF 3
ENDMDL
MODEL 2
REMARK VINA RESULT:    -5.978      1.979      2.879
REMARK INTER + INTRA:          12.267
REMARK INTER:                  -6.936
REMARK INTRA:                  19.203
REMARK UNBOUND:                19.294
REMARK  Name = 
REMARK  5 active torsions:
REMARK  status: ('A' for Active; 'I' for Inactive)
REMARK    1  A    between atoms: C_1  and  O_2
REMARK    2  A    between atoms: O_2  and  C_3
REMARK    3  A    between atoms: C_6  and  O_7
REMARK    4  A    between atoms: O_7  and  C_8
REMARK    5  A    between atoms: C_9  and  C_10
REMARK                            x       y       z     vdW  Elec       q    Type
REMARK                         _______ _______ _______ _____ _____    ______ ____
ROOT
ATOM      1  C   UNL     1      11.679 -23.296 -18.457  0.00  0.00    +0.000 A 
ATOM      2  C   UNL     1      12.271 -22.290 -19.301  0.00  0.00    +0.000 A 
ATOM      3  C   UNL     1      11.456 -21.231 -19.838  0.00  0.00    +0.000 A 
ATOM      4  O   UNL     1      11.978 -20.344 -20.582  0.00  0.00    +0.000 OA
ATOM      5  C   UNL     1       9.971 -21.176 -19.515  0.00  0.00    +0.000 A 
ATOM      6  C   UNL     1       9.063 -20.922 -20.528  0.00  0.00    +0.000 A 
ATOM      7  C   UNL     1       7.763 -20.606 -20.067  0.00  0.00    +0.000 A 
ATOM      8  C   UNL     1       7.316 -20.866 -18.851  0.00  0.00    +0.000 A 
ATOM      9  C   UNL     1       8.258 -21.176 -17.910  0.00  0.00    +0.000 A 
ATOM     10  C   UNL     1       9.572 -21.372 -18.264  0.00  0.00    +0.000 A 
ATOM     11  O   UNL     1      12.441 -24.286 -17.955  0.00  0.00    +0.000 OA
ENDROOT
BRANCH   1  16
ATOM     12  C   UNL     1       8.500 -22.730 -16.593  0.00  0.00    +0.000 A 
ATOM     13  C   UNL     1       7.524 -23.144 -17.485  0.00  0.00    +0.000 A 
ATOM     14  C   UNL     1       8.036 -23.797 -18.631  0.00  0.00    +0.000 A 
ATOM     15  C   UNL     1       9.290 -23.724 -19.038  0.00  0.00    +0.000 A 
ATOM     16  C   UNL     1      10.195 -23.241 -18.134  0.00  0.00    +0.000 A 
ATOM     17  C   UNL     1       9.783 -22.707 -16.937  0.00  0.00    +0.000 A 
BRANCH  12  19
ATOM     18  C   UNL     1       6.785 -22.641 -14.832  0.00  0.00    +0.000 C 
ATOM     19  O   UNL     1       8.133 -22.473 -15.245  0.00  0.00    +0.000 OA
ENDBRANCH  12  19
BRANCH  15  20
ATOM     20  O   UNL     1       9.678 -24.125 -20.344  0.00  0.00    +0.000 OA
ATOM     21  C   UNL     1       8.697 -24.561 -21.272  0.00  0.00    +0.000 C 
ENDBRANCH  15  20
ENDBRANCH   1  16
TORSDOF 3
ENDMDL
MODEL 3
REMARK VINA RESULT:    -5.936      1.629      4.576
REMARK INTER + INTRA:          12.316
REMARK INTER:                  -6.929
REMARK INTRA:                  19.246
REMARK UNBOUND:                19.294
REMARK  Name = 
REMARK  5 active torsions:
REMARK  status: ('A' for Active; 'I' for Inactive)
REMARK    1  A    between atoms: C_1  and  O_2
REMARK    2  A    between atoms: O_2  and  C_3
REMARK    3  A    between atoms: C_6  and  O_7
REMARK    4  A    between atoms: O_7  and  C_8
REMARK    5  A    between atoms: C_9  and  C_10
REMARK                            x       y       z     vdW  Elec       q    Type
REMARK                         _______ _______ _______ _____ _____    ______ ____
ROOT
ATOM      1  C   UNL     1      11.208 -22.038 -22.580  0.00  0.00    +0.000 A 
ATOM      2  C   UNL     1       9.884 -21.640 -22.175  0.00  0.00    +0.000 A 
ATOM      3  C   UNL     1       9.453 -21.848 -20.817  0.00  0.00    +0.000 A 
ATOM      4  O   UNL     1       8.286 -21.497 -20.460  0.00  0.00    +0.000 OA
ATOM      5  C   UNL     1      10.396 -22.488 -19.810  0.00  0.00    +0.000 A 
ATOM      6  C   UNL     1       9.923 -23.481 -18.969  0.00  0.00    +0.000 A 
ATOM      7  C   UNL     1      10.793 -23.787 -17.896  0.00  0.00    +0.000 A 
ATOM      8  C   UNL     1      12.073 -23.466 -17.856  0.00  0.00    +0.000 A 
ATOM      9  C   UNL     1      12.494 -22.529 -18.758  0.00  0.00    +0.000 A 
ATOM     10  C   UNL     1      11.659 -22.084 -19.755  0.00  0.00    +0.000 A 
ATOM     11  O   UNL     1      11.610 -21.844 -23.849  0.00  0.00    +0.000 OA
ENDROOT
BRANCH   1  16
ATOM     12  C   UNL     1      13.998 -22.461 -20.143  0.00  0.00    +0.000 A 
ATOM     13  C   UNL     1      13.901 -23.791 -19.768  0.00  0.00    +0.000 A 
ATOM     14  C   UNL     1      12.982 -24.538 -20.541  0.00  0.00    +0.000 A 
ATOM     15  C   UNL     1      12.035 -24.012 -21.296  0.00  0.00    +0.000 A 
ATOM     16  C   UNL     1      12.150 -22.678 -21.573  0.00  0.00    +0.000 A 
ATOM     17  C   UNL     1      13.106 -21.908 -20.957  0.00  0.00    +0.000 A 
BRANCH  12  19
ATOM     18  C   UNL     1      16.322 -22.410 -19.336  0.00  0.00    +0.000 C 
ATOM     19  O   UNL     1      15.156 -21.727 -19.772  0.00  0.00    +0.000 OA
ENDBRANCH  12  19
BRANCH  15  20
ATOM     20  O   UNL     1      10.953 -24.789 -21.791  0.00  0.00    +0.000 OA
ATOM     21  C   UNL     1      11.002 -26.204 -21.708  0.00  0.00    +0.000 C 
ENDBRANCH  15  20
ENDBRANCH   1  16
TORSDOF 3
ENDMDL
MODEL 4
REMARK VINA RESULT:    -5.893      2.070      5.146
REMARK INTER + INTRA:          12.367
REMARK INTER:                  -6.927
REMARK INTRA:                  19.294
REMARK UNBOUND:                19.294
REMARK  Name = 
REMARK  5 active torsions:
REMARK  status: ('A' for Active; 'I' for Inactive)
REMARK    1  A    between atoms: C_1  and  O_2
REMARK    2  A    between atoms: O_2  and  C_3
REMARK    3  A    between atoms: C_6  and  O_7
REMARK    4  A    between atoms: O_7  and  C_8
REMARK    5  A    between atoms: C_9  and  C_10
REMARK                            x       y       z     vdW  Elec       q    Type
REMARK                         _______ _______ _______ _____ _____    ______ ____
ROOT
ATOM      1  C   UNL     1       8.235 -23.208 -16.648  0.00  0.00    +0.000 A 
ATOM      2  C   UNL     1       7.134 -23.917 -17.245  0.00  0.00    +0.000 A 
ATOM      3  C   UNL     1       7.142 -24.204 -18.656  0.00  0.00    +0.000 A 
ATOM      4  O   UNL     1       6.170 -24.829 -19.183  0.00  0.00    +0.000 OA
ATOM      5  C   UNL     1       8.314 -23.756 -19.516  0.00  0.00    +0.000 A 
ATOM      6  C   UNL     1       8.071 -23.155 -20.739  0.00  0.00    +0.000 A 
ATOM      7  C   UNL     1       9.215 -23.053 -21.566  0.00  0.00    +0.000 A 
ATOM      8  C   UNL     1      10.459 -23.161 -21.137  0.00  0.00    +0.000 A 
ATOM      9  C   UNL     1      10.630 -23.700 -19.892  0.00  0.00    +0.000 A 
ATOM     10  C   UNL     1       9.551 -23.949 -19.077  0.00  0.00    +0.000 A 
ATOM     11  O   UNL     1       8.228 -22.941 -15.328  0.00  0.00    +0.000 OA
ENDROOT
BRANCH   1  16
ATOM     12  C   UNL     1      11.616 -23.111 -18.218  0.00  0.00    +0.000 A 
ATOM     13  C   UNL     1      11.567 -21.982 -19.020  0.00  0.00    +0.000 A 
ATOM     14  C   UNL     1      10.415 -21.187 -18.820  0.00  0.00    +0.000 A 
ATOM     15  C   UNL     1       9.311 -21.602 -18.226  0.00  0.00    +0.000 A 
ATOM     16  C   UNL     1       9.407 -22.760 -17.507  0.00  0.00    +0.000 A 
ATOM     17  C   UNL     1      10.547 -23.525 -17.547  0.00  0.00    +0.000 A 
BRANCH  12  19
ATOM     18  C   UNL     1      14.075 -23.038 -18.264  0.00  0.00    +0.000 C 
ATOM     19  O   UNL     1      12.870 -23.739 -17.994  0.00  0.00    +0.000 OA
ENDBRANCH  12  19
BRANCH  15  20
ATOM     20  O   UNL     1       8.089 -20.886 -18.333  0.00  0.00    +0.000 OA
ATOM     21  C   UNL     1       7.828 -19.797 -17.461  0.00  0.00    +0.000 C 
ENDBRANCH  15  20
ENDBRANCH   1  16
TORSDOF 3
ENDMDL
