MODEL 1
REMARK VINA RESULT:    -6.669      0.000      0.000
REMARK INTER + INTRA:         -12.379
REMARK INTER:                  -9.533
REMARK INTRA:                  -2.846
REMARK UNBOUND:                -2.396
REMARK  Name = 
REMARK  10 active torsions:
REMARK  status: ('A' for Active; 'I' for Inactive)
REMARK    1  A    between atoms: C_1  and  O_2
REMARK    2  A    between atoms: O_2  and  C_3
REMARK    3  A    between atoms: C_5  and  C_6
REMARK    4  A    between atoms: C_7  and  C_8
REMARK    5  A    between atoms: C_8  and  C_10
REMARK    6  A    between atoms: C_10  and  C_11
REMARK    7  A    between atoms: C_11  and  C_12
REMARK    8  A    between atoms: C_12  and  C_13
REMARK    9  A    between atoms: C_13  and  C_14
REMARK   10  A    between atoms: C_22  and  O_23
REMARK                            x       y       z     vdW  Elec       q    Type
REMARK                         _______ _______ _______ _____ _____    ______ ____
ROOT
ATOM      1  C   UNL     1      17.351 -23.379 -20.158  0.00  0.00    +0.000 C 
ATOM      2  C   UNL     1      18.289 -22.431 -20.428  0.00  0.00    +0.000 C 
ENDROOT
BRANCH   1   5
ATOM      3  C   UNL     1      13.636 -23.464 -19.473  0.00  0.00    +0.000 A 
ATOM      4  C   UNL     1      14.901 -23.842 -19.858  0.00  0.00    +0.000 A 
ATOM      5  C   UNL     1      15.958 -22.965 -19.712  0.00  0.00    +0.000 A 
ATOM      6  C   UNL     1      15.756 -21.721 -19.167  0.00  0.00    +0.000 A 
ATOM      7  C   UNL     1      14.499 -21.342 -18.751  0.00  0.00    +0.000 A 
ATOM      8  C   UNL     1      13.406 -22.204 -18.883  0.00  0.00    +0.000 A 
BRANCH   3  10
ATOM      9  C   UNL     1      12.007 -24.409 -20.935  0.00  0.00    +0.000 C 
ATOM     10  O   UNL     1      12.635 -24.354 -19.662  0.00  0.00    +0.000 OA
ENDBRANCH   3  10
BRANCH   8  11
ATOM     11  O   UNL     1      12.111 -21.825 -18.439  0.00  0.00    +0.000 OA
ATOM     12  H   UNL     1      12.010 -21.112 -17.746  0.00  0.00    +0.000 HD
ENDBRANCH   8  11
ENDBRANCH   1   5
BRANCH   2  13
ATOM     13  C   UNL     1      19.682 -22.845 -20.874  0.00  0.00    +0.000 C 
ATOM     14  O   UNL     1      20.688 -22.134 -20.561  0.00  0.00    +0.000 OA
BRANCH  13  15
ATOM     15  C   UNL     1      19.872 -24.111 -21.694  0.00  0.00    +0.000 C 
BRANCH  15  16
ATOM     16  C   UNL     1      20.379 -23.744 -23.080  0.00  0.00    +0.000 C 
BRANCH  16  17
ATOM     17  C   UNL     1      19.352 -22.867 -23.779  0.00  0.00    +0.000 C 
BRANCH  17  18
ATOM     18  C   UNL     1      18.176 -23.721 -24.223  0.00  0.00    +0.000 C 
BRANCH  18  19
ATOM     19  C   UNL     1      16.876 -23.014 -23.874  0.00  0.00    +0.000 A 
ATOM     20  C   UNL     1      16.874 -21.683 -23.495  0.00  0.00    +0.000 A 
ATOM     21  C   UNL     1      15.663 -21.259 -22.896  0.00  0.00    +0.000 A 
ATOM     22  C   UNL     1      14.514 -21.903 -22.994  0.00  0.00    +0.000 A 
ATOM     23  C   UNL     1      14.577 -23.194 -23.441  0.00  0.00    +0.000 A 
ATOM     24  C   UNL     1      15.752 -23.721 -23.918  0.00  0.00    +0.000 A 
ENDBRANCH  18  19
ENDBRANCH  17  18
ENDBRANCH  16  17
ENDBRANCH  15  16
ENDBRANCH  13  15
ENDBRANCH   2  13
TORSDOF 9
ENDMDL
MODEL 2
REMARK VINA RESULT:    -6.456      2.515      3.618
REMARK INTER + INTRA:         -12.061
REMARK INTER:                 -11.340
REMARK INTRA:                  -0.721
REMARK UNBOUND:                -2.396
REMARK  Name = 
REMARK  10 active torsions:
REMARK  status: ('A' for Active; 'I' for Inactive)
REMARK    1  A    between atoms: C_1  and  O_2
REMARK    2  A    between atoms: O_2  and  C_3
REMARK    3  A    between atoms: C_5  and  C_6
REMARK    4  A    between atoms: C_7  and  C_8
REMARK    5  A    between atoms: C_8  and  C_10
REMARK    6  A    between atoms: C_10  and  C_11
REMARK    7  A    between atoms: C_11  and  C_12
REMARK    8  A    between atoms: C_12  and  C_13
REMARK    9  A    between atoms: C_13  and  C_14
REMARK   10  A    between atoms: C_22  and  O_23
REMARK                            x       y       z     vdW  Elec       q    Type
REMARK                         _______ _______ _______ _____ _____    ______ ____
ROOT
ATOM      1  C   UNL     1      17.284 -22.790 -20.824  0.00  0.00    +0.000 C 
ATOM      2  C   UNL     1      18.478 -23.224 -20.336  0.00  0.00    +0.000 C 
ENDROOT
BRANCH   1   5
ATOM      3  C   UNL     1      13.875 -23.827 -19.567  0.00  0.00    +0.000 A 
ATOM      4  C   UNL     1      15.017 -23.749 -20.329  0.00  0.00    +0.000 A 
ATOM      5  C   UNL     1      16.033 -22.887 -19.967  0.00  0.00    +0.000 A 
ATOM      6  C   UNL     1      15.917 -22.117 -18.835  0.00  0.00    +0.000 A 
ATOM      7  C   UNL     1      14.791 -22.208 -18.047  0.00  0.00    +0.000 A 
ATOM      8  C   UNL     1      13.743 -23.071 -18.384  0.00  0.00    +0.000 A 
BRANCH   3  10
ATOM      9  C   UNL     1      11.984 -24.214 -20.967  0.00  0.00    +0.000 C 
ATOM     10  O   UNL     1      12.903 -24.670 -19.984  0.00  0.00    +0.000 OA
ENDBRANCH   3  10
BRANCH   8  11
ATOM     11  O   UNL     1      12.588 -23.181 -17.566  0.00  0.00    +0.000 OA
ATOM     12  H   UNL     1      12.678 -23.167 -16.570  0.00  0.00    +0.000 HD
ENDBRANCH   8  11
ENDBRANCH   1   5
BRANCH   2  13
ATOM     13  C   UNL     1      19.729 -23.126 -21.194  0.00  0.00    +0.000 C 
ATOM     14  O   UNL     1      20.625 -22.268 -20.917  0.00  0.00    +0.000 OA
BRANCH  13  15
ATOM     15  C   UNL     1      19.909 -24.055 -22.384  0.00  0.00    +0.000 C 
BRANCH  15  16
ATOM     16  C   UNL     1      20.975 -23.491 -23.310  0.00  0.00    +0.000 C 
BRANCH  16  17
ATOM     17  C   UNL     1      20.308 -22.784 -24.479  0.00  0.00    +0.000 C 
BRANCH  17  18
ATOM     18  C   UNL     1      21.334 -22.542 -25.575  0.00  0.00    +0.000 C 
BRANCH  18  19
ATOM     19  C   UNL     1      21.061 -21.202 -26.238  0.00  0.00    +0.000 A 
ATOM     20  C   UNL     1      21.893 -20.722 -27.235  0.00  0.00    +0.000 A 
ATOM     21  C   UNL     1      21.711 -19.348 -27.522  0.00  0.00    +0.000 A 
ATOM     22  C   UNL     1      20.646 -18.646 -27.179  0.00  0.00    +0.000 A 
ATOM     23  C   UNL     1      19.826 -19.206 -26.239  0.00  0.00    +0.000 A 
ATOM     24  C   UNL     1      20.018 -20.497 -25.812  0.00  0.00    +0.000 A 
ENDBRANCH  18  19
ENDBRANCH  17  18
ENDBRANCH  16  17
ENDBRANCH  15  16
ENDBRANCH  13  15
ENDBRANCH   2  13
TORSDOF 9
ENDMDL
MODEL 3
REMARK VINA RESULT:    -6.166      2.992      5.264
REMARK INTER + INTRA:         -11.626
REMARK INTER:                  -8.543
REMARK INTRA:                  -3.083
REMARK UNBOUND:                -2.396
REMARK  Name = 
REMARK  10 active torsions:
REMARK  status: ('A' for Active; 'I' for Inactive)
REMARK    1  A    between atoms: C_1  and  O_2
REMARK    2  A    between atoms: O_2  and  C_3
REMARK    3  A    between atoms: C_5  and  C_6
REMARK    4  A    between atoms: C_7  and  C_8
REMARK    5  A    between atoms: C_8  and  C_10
REMARK    6  A    between atoms: C_10  and  C_11
REMARK    7  A    between atoms: C_11  and  C_12
REMARK    8  A    between atoms: C_12  and  C_13
REMARK    9  A    between atoms: C_13  and  C_14
REMARK   10  A    between atoms: C_22  and  O_23
REMARK                            x       y       z     vdW  Elec       q    Type
REMARK                         _______ _______ _______ _____ _____    ______ ____
ROOT
ATOM      1  C   UNL     1      12.744 -21.894 -18.721  0.00  0.00    +0.000 C 
ATOM      2  C   UNL     1      13.774 -22.756 -18.498  0.00  0.00    +0.000 C 
ENDROOT
BRANCH   1   5
ATOM      3  C   UNL     1       9.001 -21.762 -18.218  0.00  0.00    +0.000 A 
ATOM      4  C   UNL     1      10.284 -21.413 -18.569  0.00  0.00    +0.000 A 
ATOM      5  C   UNL     1      11.325 -22.293 -18.350  0.00  0.00    +0.000 A 
ATOM      6  C   UNL     1      11.084 -23.527 -17.798  0.00  0.00    +0.000 A 
ATOM      7  C   UNL     1       9.800 -23.900 -17.469  0.00  0.00    +0.000 A 
ATOM      8  C   UNL     1       8.721 -23.034 -17.677  0.00  0.00    +0.000 A 
BRANCH   3  10
ATOM      9  C   UNL     1       7.549 -20.664 -19.757  0.00  0.00    +0.000 C 
ATOM     10  O   UNL     1       8.026 -20.851 -18.432  0.00  0.00    +0.000 OA
ENDBRANCH   3  10
BRANCH   8  11
ATOM     11  O   UNL     1       7.394 -23.421 -17.356  0.00  0.00    +0.000 OA
ATOM     12  H   UNL     1       6.762 -23.690 -18.083  0.00  0.00    +0.000 HD
ENDBRANCH   8  11
ENDBRANCH   1   5
BRANCH   2  13
ATOM     13  C   UNL     1      15.192 -22.356 -18.870  0.00  0.00    +0.000 C 
ATOM     14  O   UNL     1      15.747 -21.368 -18.293  0.00  0.00    +0.000 OA
BRANCH  13  15
ATOM     15  C   UNL     1      15.949 -23.138 -19.931  0.00  0.00    +0.000 C 
BRANCH  15  16
ATOM     16  C   UNL     1      15.689 -22.521 -21.296  0.00  0.00    +0.000 C 
BRANCH  16  17
ATOM     17  C   UNL     1      14.716 -23.396 -22.070  0.00  0.00    +0.000 C 
BRANCH  17  18
ATOM     18  C   UNL     1      13.509 -22.568 -22.482  0.00  0.00    +0.000 C 
BRANCH  18  19
ATOM     19  C   UNL     1      12.244 -23.210 -21.937  0.00  0.00    +0.000 A 
ATOM     20  C   UNL     1      12.281 -24.465 -21.353  0.00  0.00    +0.000 A 
ATOM     21  C   UNL     1      11.008 -25.062 -21.194  0.00  0.00    +0.000 A 
ATOM     22  C   UNL     1       9.863 -24.406 -21.237  0.00  0.00    +0.000 A 
ATOM     23  C   UNL     1       9.904 -23.144 -21.763  0.00  0.00    +0.000 A 
ATOM     24  C   UNL     1      11.102 -22.544 -22.066  0.00  0.00    +0.000 A 
ENDBRANCH  18  19
ENDBRANCH  17  18
ENDBRANCH  16  17
ENDBRANCH  15  16
ENDBRANCH  13  15
ENDBRANCH   2  13
TORSDOF 9
ENDMDL
MODEL 4
REMARK VINA RESULT:    -6.120      1.698      6.749
REMARK INTER + INTRA:         -11.558
REMARK INTER:                  -9.306
REMARK INTRA:                  -2.252
REMARK UNBOUND:                -2.396
REMARK  Name = 
REMARK  10 active torsions:
REMARK  status: ('A' for Active; 'I' for Inactive)
REMARK    1  A    between atoms: C_1  and  O_2
REMARK    2  A    between atoms: O_2  and  C_3
REMARK    3  A    between atoms: C_5  and  C_6
REMARK    4  A    between atoms: C_7  and  C_8
REMARK    5  A    between atoms: C_8  and  C_10
REMARK    6  A    between atoms: C_10  and  C_11
REMARK    7  A    between atoms: C_11  and  C_12
REMARK    8  A    between atoms: C_12  and  C_13
REMARK    9  A    between atoms: C_13  and  C_14
REMARK   10  A    between atoms: C_22  and  O_23
REMARK                            x       y       z     vdW  Elec       q    Type
REMARK                         _______ _______ _______ _____ _____    ______ ____
ROOT
ATOM      1  C   UNL     1      14.735 -22.538 -22.648  0.00  0.00    +0.000 C 
ATOM      2  C   UNL     1      13.805 -23.530 -22.596  0.00  0.00    +0.000 C 
ENDROOT
BRANCH   1   5
ATOM      3  C   UNL     1      18.427 -22.857 -21.909  0.00  0.00    +0.000 A 
ATOM      4  C   UNL     1      17.091 -22.562 -21.777  0.00  0.00    +0.000 A 
ATOM      5  C   UNL     1      16.208 -22.884 -22.790  0.00  0.00    +0.000 A 
ATOM      6  C   UNL     1      16.656 -23.515 -23.925  0.00  0.00    +0.000 A 
ATOM      7  C   UNL     1      17.988 -23.842 -24.056  0.00  0.00    +0.000 A 
ATOM      8  C   UNL     1      18.909 -23.532 -23.050  0.00  0.00    +0.000 A 
BRANCH   3  10
ATOM      9  C   UNL     1      18.719 -22.436 -19.581  0.00  0.00    +0.000 C 
ATOM     10  O   UNL     1      19.249 -22.496 -20.898  0.00  0.00    +0.000 OA
ENDBRANCH   3  10
BRANCH   8  11
ATOM     11  O   UNL     1      20.279 -23.882 -23.174  0.00  0.00    +0.000 OA
ATOM     12  H   UNL     1      20.982 -23.172 -23.141  0.00  0.00    +0.000 HD
ENDBRANCH   8  11
ENDBRANCH   1   5
BRANCH   2  13
ATOM     13  C   UNL     1      12.332 -23.183 -22.454  0.00  0.00    +0.000 C 
ATOM     14  O   UNL     1      11.938 -21.989 -22.642  0.00  0.00    +0.000 OA
BRANCH  13  15
ATOM     15  C   UNL     1      11.329 -24.264 -22.085  0.00  0.00    +0.000 C 
BRANCH  15  16
ATOM     16  C   UNL     1      11.532 -24.670 -20.634  0.00  0.00    +0.000 C 
BRANCH  16  17
ATOM     17  C   UNL     1      10.697 -23.771 -19.735  0.00  0.00    +0.000 C 
BRANCH  17  18
ATOM     18  C   UNL     1      11.408 -23.588 -18.404  0.00  0.00    +0.000 C 
BRANCH  18  19
ATOM     19  C   UNL     1      12.615 -22.684 -18.594  0.00  0.00    +0.000 A 
ATOM     20  C   UNL     1      12.473 -21.416 -19.134  0.00  0.00    +0.000 A 
ATOM     21  C   UNL     1      13.693 -20.829 -19.548  0.00  0.00    +0.000 A 
ATOM     22  C   UNL     1      14.888 -21.232 -19.158  0.00  0.00    +0.000 A 
ATOM     23  C   UNL     1      14.952 -22.465 -18.569  0.00  0.00    +0.000 A 
ATOM     24  C   UNL     1      13.808 -23.158 -18.253  0.00  0.00    +0.000 A 
ENDBRANCH  18  19
ENDBRANCH  17  18
ENDBRANCH  16  17
ENDBRANCH  15  16
ENDBRANCH  13  15
ENDBRANCH   2  13
TORSDOF 9
ENDMDL
MODEL 5
REMARK VINA RESULT:    -5.997      3.103      7.474
REMARK INTER + INTRA:         -11.374
REMARK INTER:                  -8.977
REMARK INTRA:                  -2.396
REMARK UNBOUND:                -2.396
REMARK  Name = 
REMARK  10 active torsions:
REMARK  status: ('A' for Active; 'I' for Inactive)
REMARK    1  A    between atoms: C_1  and  O_2
REMARK    2  A    between atoms: O_2  and  C_3
REMARK    3  A    between atoms: C_5  and  C_6
REMARK    4  A    between atoms: C_7  and  C_8
REMARK    5  A    between atoms: C_8  and  C_10
REMARK    6  A    between atoms: C_10  and  C_11
REMARK    7  A    between atoms: C_11  and  C_12
REMARK    8  A    between atoms: C_12  and  C_13
REMARK    9  A    between atoms: C_13  and  C_14
REMARK   10  A    between atoms: C_22  and  O_23
REMARK                            x       y       z     vdW  Elec       q    Type
REMARK                         _______ _______ _______ _____ _____    ______ ____
ROOT
ATOM      1  C   UNL     1      12.075 -24.509 -20.202  0.00  0.00    +0.000 C 
ATOM      2  C   UNL     1      11.732 -24.787 -21.489  0.00  0.00    +0.000 C 
ENDROOT
BRANCH   1   5
ATOM      3  C   UNL     1      14.994 -22.280 -19.315  0.00  0.00    +0.000 A 
ATOM      4  C   UNL     1      14.249 -23.394 -19.620  0.00  0.00    +0.000 A 
ATOM      5  C   UNL     1      12.899 -23.272 -19.886  0.00  0.00    +0.000 A 
ATOM      6  C   UNL     1      12.298 -22.037 -19.866  0.00  0.00    +0.000 A 
ATOM      7  C   UNL     1      13.041 -20.910 -19.590  0.00  0.00    +0.000 A 
ATOM      8  C   UNL     1      14.410 -20.997 -19.317  0.00  0.00    +0.000 A 
BRANCH   3  10
ATOM      9  C   UNL     1      17.191 -22.755 -20.111  0.00  0.00    +0.000 C 
ATOM     10  O   UNL     1      16.305 -22.463 -19.039  0.00  0.00    +0.000 OA
ENDBRANCH   3  10
BRANCH   8  11
ATOM     11  O   UNL     1      15.182 -19.836 -19.051  0.00  0.00    +0.000 OA
ATOM     12  H   UNL     1      15.033 -19.003 -19.583  0.00  0.00    +0.000 HD
ENDBRANCH   8  11
ENDBRANCH   1   5
BRANCH   2  13
ATOM     13  C   UNL     1      10.908 -26.025 -21.805  0.00  0.00    +0.000 C 
ATOM     14  O   UNL     1      11.435 -27.179 -21.719  0.00  0.00    +0.000 OA
BRANCH  13  15
ATOM     15  C   UNL     1       9.454 -25.883 -22.225  0.00  0.00    +0.000 C 
BRANCH  15  16
ATOM     16  C   UNL     1       9.146 -24.421 -22.500  0.00  0.00    +0.000 C 
BRANCH  16  17
ATOM     17  C   UNL     1       8.190 -23.896 -21.441  0.00  0.00    +0.000 C 
BRANCH  17  18
ATOM     18  C   UNL     1       8.595 -22.484 -21.048  0.00  0.00    +0.000 C 
BRANCH  18  19
ATOM     19  C   UNL     1       8.778 -22.409 -19.541  0.00  0.00    +0.000 A 
ATOM     20  C   UNL     1       8.877 -21.186 -18.899  0.00  0.00    +0.000 A 
ATOM     21  C   UNL     1       9.364 -21.272 -17.573  0.00  0.00    +0.000 A 
ATOM     22  C   UNL     1       9.388 -22.380 -16.855  0.00  0.00    +0.000 A 
ATOM     23  C   UNL     1       9.216 -23.552 -17.539  0.00  0.00    +0.000 A 
ATOM     24  C   UNL     1       8.869 -23.551 -18.867  0.00  0.00    +0.000 A 
ENDBRANCH  18  19
ENDBRANCH  17  18
ENDBRANCH  16  17
ENDBRANCH  15  16
ENDBRANCH  13  15
ENDBRANCH   2  13
TORSDOF 9
ENDMDL
