MODEL 1
REMARK VINA RESULT:    -6.787      0.000      0.000
REMARK INTER + INTRA:          13.722
REMARK INTER:                  -7.508
REMARK INTRA:                  21.230
REMARK UNBOUND:                21.302
REMARK  Name = 
REMARK  3 active torsions:
REMARK  status: ('A' for Active; 'I' for Inactive)
REMARK    1  A    between atoms: C_1  and  O_2
REMARK    2  A    between atoms: O_2  and  C_3
REMARK    3  A    between atoms: C_6  and  C_7
REMARK                            x       y       z     vdW  Elec       q    Type
REMARK                         _______ _______ _______ _____ _____    ______ ____
ROOT
ATOM      1  C   UNL     1      13.697 -22.431 -22.930  0.00  0.00    +0.000 A 
ATOM      2  C   UNL     1      15.135 -22.471 -23.019  0.00  0.00    +0.000 A 
ATOM      3  C   UNL     1      15.924 -22.653 -21.828  0.00  0.00    +0.000 A 
ATOM      4  O   UNL     1      17.192 -22.687 -21.905  0.00  0.00    +0.000 OA
ATOM      5  C   UNL     1      15.241 -22.803 -20.479  0.00  0.00    +0.000 A 
ATOM      6  C   UNL     1      15.585 -22.024 -19.387  0.00  0.00    +0.000 A 
ATOM      7  C   UNL     1      14.932 -22.395 -18.188  0.00  0.00    +0.000 A 
ATOM      8  C   UNL     1      13.843 -23.142 -18.128  0.00  0.00    +0.000 A 
ATOM      9  C   UNL     1      13.518 -23.834 -19.261  0.00  0.00    +0.000 A 
ATOM     10  C   UNL     1      14.196 -23.622 -20.439  0.00  0.00    +0.000 A 
ATOM     11  O   UNL     1      12.959 -22.261 -24.042  0.00  0.00    +0.000 OA
ENDROOT
BRANCH   1  15
ATOM     12  C   UNL     1      11.570 -22.806 -19.246  0.00  0.00    +0.000 A 
ATOM     13  C   UNL     1      11.636 -23.903 -20.090  0.00  0.00    +0.000 A 
ATOM     14  C   UNL     1      12.540 -23.743 -21.167  0.00  0.00    +0.000 A 
ATOM     15  C   UNL     1      13.014 -22.582 -21.581  0.00  0.00    +0.000 A 
ATOM     16  C   UNL     1      12.856 -21.522 -20.731  0.00  0.00    +0.000 A 
ATOM     17  C   UNL     1      12.096 -21.637 -19.593  0.00  0.00    +0.000 A 
BRANCH  12  19
ATOM     18  C   UNL     1       9.949 -23.809 -17.692  0.00  0.00    +0.000 C 
ATOM     19  O   UNL     1      11.064 -22.963 -17.928  0.00  0.00    +0.000 OA
ENDBRANCH  12  19
ENDBRANCH   1  15
TORSDOF 2
ENDMDL
MODEL 2
REMARK VINA RESULT:    -6.667      1.661      3.426
REMARK INTER + INTRA:          13.855
REMARK INTER:                  -7.447
REMARK INTRA:                  21.302
REMARK UNBOUND:                21.302
REMARK  Name = 
REMARK  3 active torsions:
REMARK  status: ('A' for Active; 'I' for Inactive)
REMARK    1  A    between atoms: C_1  and  O_2
REMARK    2  A    between atoms: O_2  and  C_3
REMARK    3  A    between atoms: C_6  and  C_7
REMARK                            x       y       z     vdW  Elec       q    Type
REMARK                         _______ _______ _______ _____ _____    ______ ____
ROOT
ATOM      1  C   UNL     1      14.593 -22.244 -18.990  0.00  0.00    +0.000 A 
ATOM      2  C   UNL     1      15.167 -22.678 -20.238  0.00  0.00    +0.000 A 
ATOM      3  C   UNL     1      14.337 -23.310 -21.230  0.00  0.00    +0.000 A 
ATOM      4  O   UNL     1      14.842 -23.694 -22.331  0.00  0.00    +0.000 OA
ATOM      5  C   UNL     1      12.856 -23.521 -20.960  0.00  0.00    +0.000 A 
ATOM      6  C   UNL     1      12.248 -24.757 -21.105  0.00  0.00    +0.000 A 
ATOM      7  C   UNL     1      10.844 -24.729 -20.935  0.00  0.00    +0.000 A 
ATOM      8  C   UNL     1      10.180 -23.750 -20.346  0.00  0.00    +0.000 A 
ATOM      9  C   UNL     1      10.857 -22.576 -20.171  0.00  0.00    +0.000 A 
ATOM     10  C   UNL     1      12.203 -22.488 -20.440  0.00  0.00    +0.000 A 
ATOM     11  O   UNL     1      15.368 -21.652 -18.063  0.00  0.00    +0.000 OA
ENDROOT
BRANCH   1  15
ATOM     12  C   UNL     1      10.467 -22.749 -18.012  0.00  0.00    +0.000 A 
ATOM     13  C   UNL     1      10.899 -21.508 -18.449  0.00  0.00    +0.000 A 
ATOM     14  C   UNL     1      12.222 -21.506 -18.952  0.00  0.00    +0.000 A 
ATOM     15  C   UNL     1      13.112 -22.453 -18.720  0.00  0.00    +0.000 A 
ATOM     16  C   UNL     1      12.630 -23.633 -18.224  0.00  0.00    +0.000 A 
ATOM     17  C   UNL     1      11.318 -23.751 -17.833  0.00  0.00    +0.000 A 
BRANCH  12  19
ATOM     18  C   UNL     1       8.564 -23.611 -16.714  0.00  0.00    +0.000 C 
ATOM     19  O   UNL     1       9.075 -23.006 -17.891  0.00  0.00    +0.000 OA
ENDBRANCH  12  19
ENDBRANCH   1  15
TORSDOF 2
ENDMDL
