MODEL 1
REMARK VINA RESULT:    -6.338      0.000      0.000
REMARK INTER + INTRA:          11.493
REMARK INTER:                  -7.470
REMARK INTRA:                  18.963
REMARK UNBOUND:                18.942
REMARK  Name = 
REMARK  5 active torsions:
REMARK  status: ('A' for Active; 'I' for Inactive)
REMARK    1  A    between atoms: C_1  and  O_2
REMARK    2  A    between atoms: O_2  and  C_3
REMARK    3  A    between atoms: C_5  and  O_6
REMARK    4  A    between atoms: O_6  and  C_7
REMARK    5  A    between atoms: C_9  and  C_10
REMARK                            x       y       z     vdW  Elec       q    Type
REMARK                         _______ _______ _______ _____ _____    ______ ____
ROOT
ATOM      1  C   UNL     1      15.460 -22.382 -22.501  0.00  0.00    +0.000 A 
ATOM      2  C   UNL     1      16.622 -22.422 -21.651  0.00  0.00    +0.000 A 
ATOM      3  C   UNL     1      16.484 -22.766 -20.259  0.00  0.00    +0.000 A 
ATOM      4  O   UNL     1      17.510 -22.802 -19.510  0.00  0.00    +0.000 OA
ATOM      5  C   UNL     1      15.113 -23.086 -19.687  0.00  0.00    +0.000 A 
ATOM      6  C   UNL     1      14.739 -22.537 -18.472  0.00  0.00    +0.000 A 
ATOM      7  C   UNL     1      13.585 -23.128 -17.907  0.00  0.00    +0.000 A 
ATOM      8  C   UNL     1      12.715 -23.862 -18.577  0.00  0.00    +0.000 A 
ATOM      9  C   UNL     1      13.118 -24.318 -19.801  0.00  0.00    +0.000 A 
ATOM     10  C   UNL     1      14.296 -23.888 -20.361  0.00  0.00    +0.000 A 
ATOM     11  O   UNL     1      15.588 -22.059 -23.801  0.00  0.00    +0.000 OA
ENDROOT
BRANCH   1  16
ATOM     12  C   UNL     1      12.261 -24.171 -21.815  0.00  0.00    +0.000 A 
ATOM     13  C   UNL     1      11.595 -23.321 -20.947  0.00  0.00    +0.000 A 
ATOM     14  C   UNL     1      12.212 -22.056 -20.798  0.00  0.00    +0.000 A 
ATOM     15  C   UNL     1      13.462 -21.790 -21.127  0.00  0.00    +0.000 A 
ATOM     16  C   UNL     1      14.089 -22.702 -21.930  0.00  0.00    +0.000 A 
ATOM     17  C   UNL     1      13.495 -23.905 -22.228  0.00  0.00    +0.000 A 
BRANCH  12  19
ATOM     18  C   UNL     1      10.444 -25.829 -21.804  0.00  0.00    +0.000 C 
ATOM     19  O   UNL     1      11.753 -25.440 -22.197  0.00  0.00    +0.000 OA
ENDBRANCH  12  19
BRANCH  14  20
ATOM     20  O   UNL     1      11.431 -21.001 -20.256  0.00  0.00    +0.000 OA
ATOM     21  C   UNL     1      10.216 -21.294 -19.579  0.00  0.00    +0.000 C 
ENDBRANCH  14  20
ENDBRANCH   1  16
TORSDOF 3
ENDMDL
MODEL 2
REMARK VINA RESULT:    -5.976      1.333      3.760
REMARK INTER + INTRA:          11.918
REMARK INTER:                  -7.045
REMARK INTRA:                  18.963
REMARK UNBOUND:                18.942
REMARK  Name = 
REMARK  5 active torsions:
REMARK  status: ('A' for Active; 'I' for Inactive)
REMARK    1  A    between atoms: C_1  and  O_2
REMARK    2  A    between atoms: O_2  and  C_3
REMARK    3  A    between atoms: C_5  and  O_6
REMARK    4  A    between atoms: O_6  and  C_7
REMARK    5  A    between atoms: C_9  and  C_10
REMARK                            x       y       z     vdW  Elec       q    Type
REMARK                         _______ _______ _______ _____ _____    ______ ____
ROOT
ATOM      1  C   UNL     1      15.005 -22.504 -19.278  0.00  0.00    +0.000 A 
ATOM      2  C   UNL     1      16.253 -22.380 -19.987  0.00  0.00    +0.000 A 
ATOM      3  C   UNL     1      16.280 -22.494 -21.423  0.00  0.00    +0.000 A 
ATOM      4  O   UNL     1      17.380 -22.384 -22.047  0.00  0.00    +0.000 OA
ATOM      5  C   UNL     1      14.992 -22.746 -22.188  0.00  0.00    +0.000 A 
ATOM      6  C   UNL     1      14.976 -23.696 -23.196  0.00  0.00    +0.000 A 
ATOM      7  C   UNL     1      13.829 -23.637 -24.022  0.00  0.00    +0.000 A 
ATOM      8  C   UNL     1      12.706 -23.020 -23.702  0.00  0.00    +0.000 A 
ATOM      9  C   UNL     1      12.771 -22.144 -22.654  0.00  0.00    +0.000 A 
ATOM     10  C   UNL     1      13.903 -22.050 -21.881  0.00  0.00    +0.000 A 
ATOM     11  O   UNL     1      14.980 -22.399 -17.937  0.00  0.00    +0.000 OA
ENDROOT
BRANCH   1  16
ATOM     12  C   UNL     1      11.653 -21.943 -20.810  0.00  0.00    +0.000 A 
ATOM     13  C   UNL     1      11.357 -23.163 -21.396  0.00  0.00    +0.000 A 
ATOM     14  C   UNL     1      12.260 -24.197 -21.054  0.00  0.00    +0.000 A 
ATOM     15  C   UNL     1      13.463 -24.002 -20.544  0.00  0.00    +0.000 A 
ATOM     16  C   UNL     1      13.718 -22.756 -20.044  0.00  0.00    +0.000 A 
ATOM     17  C   UNL     1      12.824 -21.727 -20.223  0.00  0.00    +0.000 A 
BRANCH  12  19
ATOM     18  C   UNL     1       9.432 -20.905 -20.597  0.00  0.00    +0.000 C 
ATOM     19  O   UNL     1      10.811 -20.805 -20.925  0.00  0.00    +0.000 OA
ENDBRANCH  12  19
BRANCH  14  20
ATOM     20  O   UNL     1      11.845 -25.536 -21.276  0.00  0.00    +0.000 OA
ATOM     21  C   UNL     1      10.515 -25.806 -21.700  0.00  0.00    +0.000 C 
ENDBRANCH  14  20
ENDBRANCH   1  16
TORSDOF 3
ENDMDL
MODEL 3
REMARK VINA RESULT:    -5.861      1.774      4.264
REMARK INTER + INTRA:          12.054
REMARK INTER:                  -6.888
REMARK INTRA:                  18.942
REMARK UNBOUND:                18.942
REMARK  Name = 
REMARK  5 active torsions:
REMARK  status: ('A' for Active; 'I' for Inactive)
REMARK    1  A    between atoms: C_1  and  O_2
REMARK    2  A    between atoms: O_2  and  C_3
REMARK    3  A    between atoms: C_5  and  O_6
REMARK    4  A    between atoms: O_6  and  C_7
REMARK    5  A    between atoms: C_9  and  C_10
REMARK                            x       y       z     vdW  Elec       q    Type
REMARK                         _______ _______ _______ _____ _____    ______ ____
ROOT
ATOM      1  C   UNL     1      14.127 -22.468 -18.950  0.00  0.00    +0.000 A 
ATOM      2  C   UNL     1      15.034 -21.982 -19.958  0.00  0.00    +0.000 A 
ATOM      3  C   UNL     1      14.539 -21.639 -21.267  0.00  0.00    +0.000 A 
ATOM      4  O   UNL     1      15.339 -21.210 -22.156  0.00  0.00    +0.000 OA
ATOM      5  C   UNL     1      13.060 -21.790 -21.584  0.00  0.00    +0.000 A 
ATOM      6  C   UNL     1      12.679 -22.374 -22.780  0.00  0.00    +0.000 A 
ATOM      7  C   UNL     1      11.311 -22.198 -23.094  0.00  0.00    +0.000 A 
ATOM      8  C   UNL     1      10.382 -21.848 -22.223  0.00  0.00    +0.000 A 
ATOM      9  C   UNL     1      10.823 -21.341 -21.033  0.00  0.00    +0.000 A 
ATOM     10  C   UNL     1      12.158 -21.360 -20.710  0.00  0.00    +0.000 A 
ATOM     11  O   UNL     1      14.589 -22.789 -17.728  0.00  0.00    +0.000 OA
ENDROOT
BRANCH   1  16
ATOM     12  C   UNL     1      10.444 -21.885 -18.932  0.00  0.00    +0.000 A 
ATOM     13  C   UNL     1       9.958 -22.863 -19.782  0.00  0.00    +0.000 A 
ATOM     14  C   UNL     1      10.927 -23.819 -20.170  0.00  0.00    +0.000 A 
ATOM     15  C   UNL     1      12.231 -23.646 -20.067  0.00  0.00    +0.000 A 
ATOM     16  C   UNL     1      12.649 -22.619 -19.267  0.00  0.00    +0.000 A 
ATOM     17  C   UNL     1      11.749 -21.722 -18.744  0.00  0.00    +0.000 A 
BRANCH  12  19
ATOM     18  C   UNL     1       8.715 -21.266 -17.295  0.00  0.00    +0.000 C 
ATOM     19  O   UNL     1       9.616 -20.900 -18.331  0.00  0.00    +0.000 OA
ENDBRANCH  12  19
BRANCH  14  20
ATOM     20  O   UNL     1      10.463 -25.048 -20.708  0.00  0.00    +0.000 OA
ATOM     21  C   UNL     1      11.226 -25.722 -21.699  0.00  0.00    +0.000 C 
ENDBRANCH  14  20
ENDBRANCH   1  16
TORSDOF 3
ENDMDL
