MODEL 1
REMARK VINA RESULT:    -9.824      0.000      0.000
REMARK INTER + INTRA:           5.159
REMARK INTER:                 -11.825
REMARK INTRA:                  16.984
REMARK UNBOUND:                16.993
REMARK  Name = 
REMARK  12 active torsions:
REMARK  status: ('A' for Active; 'I' for Inactive)
REMARK    1  A    between atoms: C_1  and  C_2
REMARK    2  A    between atoms: C_2  and  O_4
REMARK    3  A    between atoms: O_4  and  C_5
REMARK    4  A    between atoms: C_8  and  C_9
REMARK    5  A    between atoms: C_13  and  C_14
REMARK    6  A    between atoms: C_21  and  C_22
REMARK    7  A    between atoms: C_23  and  C_24
REMARK    8  A    between atoms: C_27  and  C_28
REMARK    9  A    between atoms: C_31  and  C_32
REMARK   10  A    between atoms: C_33  and  C_34
REMARK   11  A    between atoms: C_33  and  C_35
REMARK   12  A    between atoms: C_35  and  O_37
REMARK                            x       y       z     vdW  Elec       q    Type
REMARK                         _______ _______ _______ _____ _____    ______ ____
ROOT
ATOM      1  C   UNL     1      12.486 -24.848 -22.461  0.00  0.00    +0.000 C 
ATOM      2  C   UNL     1      11.598 -25.621 -21.490  0.00  0.00    +0.000 C 
ATOM      3  C   UNL     1      10.461 -24.754 -20.985  0.00  0.00    +0.000 C 
ATOM      4  C   UNL     1      10.888 -23.409 -20.605  0.00  0.00    +0.000 C 
ATOM      5  C   UNL     1      12.384 -23.302 -20.854  0.00  0.00    +0.000 C 
ATOM      6  C   UNL     1      11.900 -22.685 -21.369  0.00  0.00    +0.000 C 
ATOM      7  C   UNL     1      12.466 -21.526 -20.545  0.00  0.00    +0.000 C 
ATOM      8  C   UNL     1      11.307 -20.679 -20.010  0.00  0.00    +0.000 C 
ATOM      9  C   UNL     1      10.432 -21.550 -19.218  0.00  0.00    +0.000 C 
ATOM     10  C   UNL     1       9.045 -20.930 -19.265  0.00  0.00    +0.000 C 
ATOM     11  C   UNL     1      10.287 -22.841 -19.539  0.00  0.00    +0.000 C 
ATOM     12  C   UNL     1      11.011 -23.520 -18.388  0.00  0.00    +0.000 C 
ATOM     13  O   UNL     1      10.369 -24.270 -17.588  0.00  0.00    +0.000 OA
ATOM     14  C   UNL     1      12.503 -23.302 -18.194  0.00  0.00    +0.000 C 
ATOM     15  C   UNL     1      13.190 -22.498 -19.051  0.00  0.00    +0.000 C 
ATOM     16  C   UNL     1      12.590 -21.754 -20.246  0.00  0.00    +0.000 C 
ATOM     17  C   UNL     1      11.121 -22.169 -20.388  0.00  0.00    +0.000 C 
ATOM     18  C   UNL     1      10.330 -21.651 -19.198  0.00  0.00    +0.000 C 
ATOM     19  C   UNL     1      10.556 -21.572 -21.679  0.00  0.00    +0.000 C 
ATOM     20  C   UNL     1       9.110 -22.005 -21.869  0.00  0.00    +0.000 C 
ATOM     21  C   UNL     1      11.378 -22.045 -22.799  0.00  0.00    +0.000 C 
ATOM     22  C   UNL     1      12.684 -22.279 -22.631  0.00  0.00    +0.000 C 
ATOM     23  C   UNL     1      13.330 -22.069 -21.465  0.00  0.00    +0.000 C 
ATOM     24  C   UNL     1      12.844 -22.651 -20.147  0.00  0.00    +0.000 C 
ATOM     25  C   UNL     1      14.789 -22.133 -21.478  0.00  0.00    +0.000 C 
ATOM     26  C   UNL     1      15.371 -22.746 -20.219  0.00  0.00    +0.000 C 
ATOM     27  C   UNL     1      14.687 -22.193 -18.972  0.00  0.00    +0.000 C 
ATOM     28  C   UNL     1      14.898 -20.688 -18.900  0.00  0.00    +0.000 C 
ATOM     29  C   UNL     1      13.053 -23.619 -21.746  0.00  0.00    +0.000 C 
ATOM     30  C   UNL     1      14.017 -22.892 -22.669  0.00  0.00    +0.000 C 
ENDROOT
BRANCH  29  31
ATOM     31  C   UNL     1      13.793 -24.053 -20.492  0.00  0.00    +0.000 C 
ATOM     32  O   UNL     1      13.066 -24.787 -19.752  0.00  0.00    +0.000 OA
BRANCH  31  33
ATOM     33  O   UNL     1      15.184 -23.939 -20.231  0.00  0.00    +0.000 OA
ATOM     34  H   UNL     1      15.751 -23.336 -20.793  0.00  0.00    +0.000 HD
ENDBRANCH  31  33
ENDBRANCH  29  31
BRANCH   1  35
ATOM     35  O   UNL     1      11.634 -24.886 -23.597  0.00  0.00    +0.000 OA
BRANCH  35  37
ATOM     36  C   UNL     1      12.645 -24.268 -25.851  0.00  0.00    +0.000 C 
ATOM     37  C   UNL     1      12.146 -25.302 -24.855  0.00  0.00    +0.000 C 
ATOM     38  O   UNL     1      12.186 -26.538 -25.146  0.00  0.00    +0.000 OA
ENDBRANCH  35  37
ENDBRANCH   1  35
TORSDOF 4
ENDMDL
MODEL 2
REMARK VINA RESULT:    -9.009      1.824      4.811
REMARK INTER + INTRA:           6.141
REMARK INTER:                 -10.853
REMARK INTRA:                  16.993
REMARK UNBOUND:                16.993
REMARK  Name = 
REMARK  12 active torsions:
REMARK  status: ('A' for Active; 'I' for Inactive)
REMARK    1  A    between atoms: C_1  and  C_2
REMARK    2  A    between atoms: C_2  and  O_4
REMARK    3  A    between atoms: O_4  and  C_5
REMARK    4  A    between atoms: C_8  and  C_9
REMARK    5  A    between atoms: C_13  and  C_14
REMARK    6  A    between atoms: C_21  and  C_22
REMARK    7  A    between atoms: C_23  and  C_24
REMARK    8  A    between atoms: C_27  and  C_28
REMARK    9  A    between atoms: C_31  and  C_32
REMARK   10  A    between atoms: C_33  and  C_34
REMARK   11  A    between atoms: C_33  and  C_35
REMARK   12  A    between atoms: C_35  and  O_37
REMARK                            x       y       z     vdW  Elec       q    Type
REMARK                         _______ _______ _______ _____ _____    ______ ____
ROOT
ATOM      1  C   UNL     1       9.868 -21.288 -19.225  0.00  0.00    +0.000 C 
ATOM      2  C   UNL     1       9.665 -20.664 -20.603  0.00  0.00    +0.000 C 
ATOM      3  C   UNL     1       9.476 -21.733 -21.663  0.00  0.00    +0.000 C 
ATOM      4  C   UNL     1      10.424 -22.838 -21.540  0.00  0.00    +0.000 C 
ATOM      5  C   UNL     1      11.322 -22.559 -20.346  0.00  0.00    +0.000 C 
ATOM      6  C   UNL     1      10.834 -23.352 -20.236  0.00  0.00    +0.000 C 
ATOM      7  C   UNL     1      12.115 -24.180 -20.365  0.00  0.00    +0.000 C 
ATOM      8  C   UNL     1      11.924 -25.231 -21.463  0.00  0.00    +0.000 C 
ATOM      9  C   UNL     1      11.584 -24.535 -22.709  0.00  0.00    +0.000 C 
ATOM     10  C   UNL     1      10.783 -25.516 -23.549  0.00  0.00    +0.000 C 
ATOM     11  C   UNL     1      10.885 -23.395 -22.680  0.00  0.00    +0.000 C 
ATOM     12  C   UNL     1      11.939 -22.385 -23.103  0.00  0.00    +0.000 C 
ATOM     13  O   UNL     1      11.800 -21.738 -24.188  0.00  0.00    +0.000 OA
ATOM     14  C   UNL     1      13.160 -22.150 -22.228  0.00  0.00    +0.000 C 
ATOM     15  C   UNL     1      13.309 -22.843 -21.067  0.00  0.00    +0.000 C 
ATOM     16  C   UNL     1      12.330 -23.886 -20.523  0.00  0.00    +0.000 C 
ATOM     17  C   UNL     1      11.100 -23.921 -21.437  0.00  0.00    +0.000 C 
ATOM     18  C   UNL     1      11.497 -24.465 -22.800  0.00  0.00    +0.000 C 
ATOM     19  C   UNL     1      10.037 -24.827 -20.812  0.00  0.00    +0.000 C 
ATOM     20  C   UNL     1       8.787 -24.846 -21.677  0.00  0.00    +0.000 C 
ATOM     21  C   UNL     1       9.722 -24.308 -19.476  0.00  0.00    +0.000 C 
ATOM     22  C   UNL     1      10.663 -23.698 -18.745  0.00  0.00    +0.000 C 
ATOM     23  C   UNL     1      11.940 -23.553 -19.156  0.00  0.00    +0.000 C 
ATOM     24  C   UNL     1      12.301 -22.949 -20.503  0.00  0.00    +0.000 C 
ATOM     25  C   UNL     1      12.917 -23.088 -18.174  0.00  0.00    +0.000 C 
ATOM     26  C   UNL     1      13.965 -22.165 -18.766  0.00  0.00    +0.000 C 
ATOM     27  C   UNL     1      14.483 -22.705 -20.096  0.00  0.00    +0.000 C 
ATOM     28  C   UNL     1      15.127 -24.066 -19.878  0.00  0.00    +0.000 C 
ATOM     29  C   UNL     1      11.099 -22.197 -19.267  0.00  0.00    +0.000 C 
ATOM     30  C   UNL     1      11.371 -22.750 -17.878  0.00  0.00    +0.000 C 
ENDROOT
BRANCH  29  31
ATOM     31  C   UNL     1      12.306 -21.402 -19.735  0.00  0.00    +0.000 C 
ATOM     32  O   UNL     1      12.068 -20.787 -20.821  0.00  0.00    +0.000 OA
BRANCH  31  33
ATOM     33  O   UNL     1      13.479 -21.101 -18.992  0.00  0.00    +0.000 OA
ATOM     34  H   UNL     1      13.792 -21.727 -18.277  0.00  0.00    +0.000 HD
ENDBRANCH  31  33
ENDBRANCH  29  31
BRANCH   1  35
ATOM     35  O   UNL     1       8.520 -21.650 -18.961  0.00  0.00    +0.000 OA
BRANCH  35  37
ATOM     36  C   UNL     1       7.818 -22.437 -16.643  0.00  0.00    +0.000 C 
ATOM     37  C   UNL     1       7.938 -21.351 -17.701  0.00  0.00    +0.000 C 
ATOM     38  O   UNL     1       7.520 -20.177 -17.457  0.00  0.00    +0.000 OA
ENDBRANCH  35  37
ENDBRANCH   1  35
TORSDOF 4
ENDMDL
