MODEL 1
REMARK VINA RESULT:    -6.879      0.000      0.000
REMARK INTER + INTRA:          -9.547
REMARK INTER:                  -8.886
REMARK INTRA:                  -0.661
REMARK UNBOUND:                -0.657
REMARK  Name = 
REMARK  7 active torsions:
REMARK  status: ('A' for Active; 'I' for Inactive)
REMARK    1  A    between atoms: C_1  and  O_2
REMARK    2  A    between atoms: O_2  and  C_3
REMARK    3  A    between atoms: C_6  and  C_7
REMARK    4  A    between atoms: C_7  and  C_9
REMARK    5  A    between atoms: C_10  and  C_11
REMARK    6  A    between atoms: C_14  and  O_15
REMARK    7  A    between atoms: C_18  and  O_19
REMARK                            x       y       z     vdW  Elec       q    Type
REMARK                         _______ _______ _______ _____ _____    ______ ____
ROOT
ATOM      1  C   UNL     1      17.764 -22.770 -20.099  0.00  0.00    +0.000 C 
ATOM      2  O   UNL     1      18.618 -22.873 -19.164  0.00  0.00    +0.000 OA
ENDROOT
BRANCH   1   6
ATOM      3  C   UNL     1      13.585 -22.472 -19.211  0.00  0.00    +0.000 A 
ATOM      4  C   UNL     1      14.045 -23.454 -20.055  0.00  0.00    +0.000 A 
ATOM      5  C   UNL     1      15.393 -23.546 -20.341  0.00  0.00    +0.000 A 
ATOM      6  C   UNL     1      16.284 -22.669 -19.770  0.00  0.00    +0.000 A 
ATOM      7  C   UNL     1      15.839 -21.700 -18.899  0.00  0.00    +0.000 A 
ATOM      8  C   UNL     1      14.480 -21.578 -18.587  0.00  0.00    +0.000 A 
BRANCH   3  10
ATOM      9  C   UNL     1      11.642 -23.314 -18.075  0.00  0.00    +0.000 C 
ATOM     10  O   UNL     1      12.252 -22.414 -18.989  0.00  0.00    +0.000 OA
ENDBRANCH   3  10
BRANCH   7  11
ATOM     11  O   UNL     1      16.772 -20.809 -18.308  0.00  0.00    +0.000 OA
ATOM     12  H   UNL     1      16.984 -20.879 -17.333  0.00  0.00    +0.000 HD
ENDBRANCH   7  11
ENDBRANCH   1   6
BRANCH   1  13
ATOM     13  C   UNL     1      18.222 -22.750 -21.548  0.00  0.00    +0.000 C 
ATOM     14  C   UNL     1      19.542 -22.888 -21.846  0.00  0.00    +0.000 C 
BRANCH  14  15
ATOM     15  C   UNL     1      20.001 -22.869 -23.295  0.00  0.00    +0.000 A 
ATOM     16  C   UNL     1      19.138 -22.484 -24.298  0.00  0.00    +0.000 A 
ATOM     17  C   UNL     1      19.563 -22.415 -25.628  0.00  0.00    +0.000 A 
ATOM     18  C   UNL     1      20.909 -22.736 -25.902  0.00  0.00    +0.000 A 
ATOM     19  C   UNL     1      21.752 -23.147 -24.896  0.00  0.00    +0.000 A 
ATOM     20  C   UNL     1      21.300 -23.204 -23.592  0.00  0.00    +0.000 A 
BRANCH  18  21
ATOM     21  O   UNL     1      21.415 -22.674 -27.154  0.00  0.00    +0.000 OA
ATOM     22  H   UNL     1      20.908 -23.074 -27.918  0.00  0.00    +0.000 HD
ENDBRANCH  18  21
ENDBRANCH  14  15
ENDBRANCH   1  13
TORSDOF 6
ENDMDL
MODEL 2
REMARK VINA RESULT:    -6.626      2.266      3.562
REMARK INTER + INTRA:          -9.220
REMARK INTER:                  -8.600
REMARK INTRA:                  -0.620
REMARK UNBOUND:                -0.657
REMARK  Name = 
REMARK  7 active torsions:
REMARK  status: ('A' for Active; 'I' for Inactive)
REMARK    1  A    between atoms: C_1  and  O_2
REMARK    2  A    between atoms: O_2  and  C_3
REMARK    3  A    between atoms: C_6  and  C_7
REMARK    4  A    between atoms: C_7  and  C_9
REMARK    5  A    between atoms: C_10  and  C_11
REMARK    6  A    between atoms: C_14  and  O_15
REMARK    7  A    between atoms: C_18  and  O_19
REMARK                            x       y       z     vdW  Elec       q    Type
REMARK                         _______ _______ _______ _____ _____    ______ ____
ROOT
ATOM      1  C   UNL     1      19.502 -22.996 -23.013  0.00  0.00    +0.000 C 
ATOM      2  O   UNL     1      20.436 -23.812 -22.739  0.00  0.00    +0.000 OA
ENDROOT
BRANCH   1   6
ATOM      3  C   UNL     1      16.223 -22.454 -20.312  0.00  0.00    +0.000 A 
ATOM      4  C   UNL     1      16.002 -22.508 -21.668  0.00  0.00    +0.000 A 
ATOM      5  C   UNL     1      17.063 -22.681 -22.536  0.00  0.00    +0.000 A 
ATOM      6  C   UNL     1      18.341 -22.817 -22.050  0.00  0.00    +0.000 A 
ATOM      7  C   UNL     1      18.571 -22.794 -20.693  0.00  0.00    +0.000 A 
ATOM      8  C   UNL     1      17.520 -22.621 -19.785  0.00  0.00    +0.000 A 
BRANCH   3  10
ATOM      9  C   UNL     1      15.016 -21.042 -18.788  0.00  0.00    +0.000 C 
ATOM     10  O   UNL     1      15.150 -22.256 -19.513  0.00  0.00    +0.000 OA
ENDBRANCH   3  10
BRANCH   7  11
ATOM     11  O   UNL     1      19.896 -22.949 -20.206  0.00  0.00    +0.000 OA
ATOM     12  H   UNL     1      20.054 -23.139 -19.237  0.00  0.00    +0.000 HD
ENDBRANCH   7  11
ENDBRANCH   1   6
BRANCH   1  13
ATOM     13  C   UNL     1      19.546 -22.197 -24.306  0.00  0.00    +0.000 C 
ATOM     14  C   UNL     1      20.550 -22.405 -25.200  0.00  0.00    +0.000 C 
BRANCH  14  15
ATOM     15  C   UNL     1      20.594 -21.607 -26.493  0.00  0.00    +0.000 A 
ATOM     16  C   UNL     1      19.494 -21.554 -27.321  0.00  0.00    +0.000 A 
ATOM     17  C   UNL     1      19.506 -20.784 -28.488  0.00  0.00    +0.000 A 
ATOM     18  C   UNL     1      20.676 -20.051 -28.775  0.00  0.00    +0.000 A 
ATOM     19  C   UNL     1      21.778 -20.135 -27.956  0.00  0.00    +0.000 A 
ATOM     20  C   UNL     1      21.732 -20.906 -26.811  0.00  0.00    +0.000 A 
BRANCH  18  21
ATOM     21  O   UNL     1      20.770 -19.260 -29.868  0.00  0.00    +0.000 OA
ATOM     22  H   UNL     1      20.636 -19.649 -30.780  0.00  0.00    +0.000 HD
ENDBRANCH  18  21
ENDBRANCH  14  15
ENDBRANCH   1  13
TORSDOF 6
ENDMDL
MODEL 3
REMARK VINA RESULT:    -6.605      1.203      1.425
REMARK INTER + INTRA:          -9.193
REMARK INTER:                  -8.559
REMARK INTRA:                  -0.634
REMARK UNBOUND:                -0.657
REMARK  Name = 
REMARK  7 active torsions:
REMARK  status: ('A' for Active; 'I' for Inactive)
REMARK    1  A    between atoms: C_1  and  O_2
REMARK    2  A    between atoms: O_2  and  C_3
REMARK    3  A    between atoms: C_6  and  C_7
REMARK    4  A    between atoms: C_7  and  C_9
REMARK    5  A    between atoms: C_10  and  C_11
REMARK    6  A    between atoms: C_14  and  O_15
REMARK    7  A    between atoms: C_18  and  O_19
REMARK                            x       y       z     vdW  Elec       q    Type
REMARK                         _______ _______ _______ _____ _____    ______ ____
ROOT
ATOM      1  C   UNL     1      16.521 -22.385 -20.081  0.00  0.00    +0.000 C 
ATOM      2  O   UNL     1      17.381 -22.257 -19.155  0.00  0.00    +0.000 OA
ENDROOT
BRANCH   1   6
ATOM      3  C   UNL     1      12.360 -22.791 -19.149  0.00  0.00    +0.000 A 
ATOM      4  C   UNL     1      13.086 -23.881 -19.566  0.00  0.00    +0.000 A 
ATOM      5  C   UNL     1      14.428 -23.746 -19.867  0.00  0.00    +0.000 A 
ATOM      6  C   UNL     1      15.048 -22.527 -19.735  0.00  0.00    +0.000 A 
ATOM      7  C   UNL     1      14.339 -21.434 -19.290  0.00  0.00    +0.000 A 
ATOM      8  C   UNL     1      12.979 -21.535 -18.976  0.00  0.00    +0.000 A 
BRANCH   3  10
ATOM      9  C   UNL     1      10.290 -21.953 -18.264  0.00  0.00    +0.000 C 
ATOM     10  O   UNL     1      11.045 -22.977 -18.894  0.00  0.00    +0.000 OA
ENDBRANCH   3  10
BRANCH   7  11
ATOM     11  O   UNL     1      14.996 -20.184 -19.147  0.00  0.00    +0.000 OA
ATOM     12  H   UNL     1      14.671 -19.521 -18.473  0.00  0.00    +0.000 HD
ENDBRANCH   7  11
ENDBRANCH   1   6
BRANCH   1  13
ATOM     13  C   UNL     1      16.965 -22.398 -21.534  0.00  0.00    +0.000 C 
ATOM     14  C   UNL     1      18.244 -22.735 -21.852  0.00  0.00    +0.000 C 
BRANCH  14  15
ATOM     15  C   UNL     1      18.688 -22.749 -23.305  0.00  0.00    +0.000 A 
ATOM     16  C   UNL     1      17.758 -22.725 -24.323  0.00  0.00    +0.000 A 
ATOM     17  C   UNL     1      18.155 -22.688 -25.662  0.00  0.00    +0.000 A 
ATOM     18  C   UNL     1      19.539 -22.656 -25.933  0.00  0.00    +0.000 A 
ATOM     19  C   UNL     1      20.458 -22.709 -24.910  0.00  0.00    +0.000 A 
ATOM     20  C   UNL     1      20.030 -22.746 -23.597  0.00  0.00    +0.000 A 
BRANCH  18  21
ATOM     21  O   UNL     1      20.016 -22.594 -27.197  0.00  0.00    +0.000 OA
ATOM     22  H   UNL     1      19.961 -21.738 -27.711  0.00  0.00    +0.000 HD
ENDBRANCH  18  21
ENDBRANCH  14  15
ENDBRANCH   1  13
TORSDOF 6
ENDMDL
MODEL 4
REMARK VINA RESULT:    -6.585      1.859      3.313
REMARK INTER + INTRA:          -9.166
REMARK INTER:                  -8.510
REMARK INTRA:                  -0.657
REMARK UNBOUND:                -0.657
REMARK  Name = 
REMARK  7 active torsions:
REMARK  status: ('A' for Active; 'I' for Inactive)
REMARK    1  A    between atoms: C_1  and  O_2
REMARK    2  A    between atoms: O_2  and  C_3
REMARK    3  A    between atoms: C_6  and  C_7
REMARK    4  A    between atoms: C_7  and  C_9
REMARK    5  A    between atoms: C_10  and  C_11
REMARK    6  A    between atoms: C_14  and  O_15
REMARK    7  A    between atoms: C_18  and  O_19
REMARK                            x       y       z     vdW  Elec       q    Type
REMARK                         _______ _______ _______ _____ _____    ______ ____
ROOT
ATOM      1  C   UNL     1      14.908 -22.102 -18.942  0.00  0.00    +0.000 C 
ATOM      2  O   UNL     1      15.328 -22.027 -17.745  0.00  0.00    +0.000 OA
ENDROOT
BRANCH   1   6
ATOM      3  C   UNL     1      10.697 -22.065 -19.722  0.00  0.00    +0.000 A 
ATOM      4  C   UNL     1      11.534 -21.209 -20.398  0.00  0.00    +0.000 A 
ATOM      5  C   UNL     1      12.891 -21.223 -20.142  0.00  0.00    +0.000 A 
ATOM      6  C   UNL     1      13.415 -22.102 -19.225  0.00  0.00    +0.000 A 
ATOM      7  C   UNL     1      12.591 -22.985 -18.563  0.00  0.00    +0.000 A 
ATOM      8  C   UNL     1      11.211 -22.998 -18.798  0.00  0.00    +0.000 A 
BRANCH   3  10
ATOM      9  C   UNL     1       8.636 -20.835 -19.618  0.00  0.00    +0.000 C 
ATOM     10  O   UNL     1       9.375 -21.988 -19.994  0.00  0.00    +0.000 OA
ENDBRANCH   3  10
BRANCH   7  11
ATOM     11  O   UNL     1      13.148 -23.895 -17.628  0.00  0.00    +0.000 OA
ATOM     12  H   UNL     1      12.712 -24.030 -16.739  0.00  0.00    +0.000 HD
ENDBRANCH   7  11
ENDBRANCH   1   6
BRANCH   1  13
ATOM     13  C   UNL     1      15.899 -22.191 -20.091  0.00  0.00    +0.000 C 
ATOM     14  C   UNL     1      17.159 -22.652 -19.868  0.00  0.00    +0.000 C 
BRANCH  14  15
ATOM     15  C   UNL     1      18.150 -22.743 -21.017  0.00  0.00    +0.000 A 
ATOM     16  C   UNL     1      17.718 -22.661 -22.323  0.00  0.00    +0.000 A 
ATOM     17  C   UNL     1      18.625 -22.693 -23.386  0.00  0.00    +0.000 A 
ATOM     18  C   UNL     1      19.996 -22.795 -23.072  0.00  0.00    +0.000 A 
ATOM     19  C   UNL     1      20.413 -22.905 -21.766  0.00  0.00    +0.000 A 
ATOM     20  C   UNL     1      19.490 -22.869 -20.739  0.00  0.00    +0.000 A 
BRANCH  18  21
ATOM     21  O   UNL     1      20.947 -22.808 -24.034  0.00  0.00    +0.000 OA
ATOM     22  H   UNL     1      20.688 -22.711 -24.995  0.00  0.00    +0.000 HD
ENDBRANCH  18  21
ENDBRANCH  14  15
ENDBRANCH   1  13
TORSDOF 6
ENDMDL
MODEL 5
REMARK VINA RESULT:    -6.532      3.875     10.255
REMARK INTER + INTRA:          -9.097
REMARK INTER:                  -8.419
REMARK INTRA:                  -0.679
REMARK UNBOUND:                -0.657
REMARK  Name = 
REMARK  7 active torsions:
REMARK  status: ('A' for Active; 'I' for Inactive)
REMARK    1  A    between atoms: C_1  and  O_2
REMARK    2  A    between atoms: O_2  and  C_3
REMARK    3  A    between atoms: C_6  and  C_7
REMARK    4  A    between atoms: C_7  and  C_9
REMARK    5  A    between atoms: C_10  and  C_11
REMARK    6  A    between atoms: C_14  and  O_15
REMARK    7  A    between atoms: C_18  and  O_19
REMARK                            x       y       z     vdW  Elec       q    Type
REMARK                         _______ _______ _______ _____ _____    ______ ____
ROOT
ATOM      1  C   UNL     1      11.446 -22.696 -20.535  0.00  0.00    +0.000 C 
ATOM      2  O   UNL     1      11.089 -22.820 -21.748  0.00  0.00    +0.000 OA
ENDROOT
BRANCH   1   6
ATOM      3  C   UNL     1      15.570 -22.141 -19.522  0.00  0.00    +0.000 A 
ATOM      4  C   UNL     1      15.021 -23.401 -19.522  0.00  0.00    +0.000 A 
ATOM      5  C   UNL     1      13.689 -23.576 -19.848  0.00  0.00    +0.000 A 
ATOM      6  C   UNL     1      12.912 -22.495 -20.190  0.00  0.00    +0.000 A 
ATOM      7  C   UNL     1      13.459 -21.232 -20.223  0.00  0.00    +0.000 A 
ATOM      8  C   UNL     1      14.803 -21.019 -19.899  0.00  0.00    +0.000 A 
BRANCH   3  10
ATOM      9  C   UNL     1      17.874 -22.692 -19.925  0.00  0.00    +0.000 C 
ATOM     10  O   UNL     1      16.871 -22.028 -19.170  0.00  0.00    +0.000 OA
ENDBRANCH   3  10
BRANCH   7  11
ATOM     11  O   UNL     1      12.646 -20.128 -20.591  0.00  0.00    +0.000 OA
ATOM     12  H   UNL     1      12.668 -19.287 -20.049  0.00  0.00    +0.000 HD
ENDBRANCH   7  11
ENDBRANCH   1   6
BRANCH   1  13
ATOM     13  C   UNL     1      10.406 -22.749 -19.428  0.00  0.00    +0.000 C 
ATOM     14  C   UNL     1      10.075 -21.617 -18.750  0.00  0.00    +0.000 C 
BRANCH  14  15
ATOM     15  C   UNL     1       9.034 -21.670 -17.644  0.00  0.00    +0.000 A 
ATOM     16  C   UNL     1       8.052 -20.707 -17.559  0.00  0.00    +0.000 A 
ATOM     17  C   UNL     1       7.061 -20.773 -16.576  0.00  0.00    +0.000 A 
ATOM     18  C   UNL     1       7.092 -21.868 -15.688  0.00  0.00    +0.000 A 
ATOM     19  C   UNL     1       8.095 -22.807 -15.764  0.00  0.00    +0.000 A 
ATOM     20  C   UNL     1       9.059 -22.712 -16.748  0.00  0.00    +0.000 A 
BRANCH  18  21
ATOM     21  O   UNL     1       6.160 -22.028 -14.721  0.00  0.00    +0.000 OA
ATOM     22  H   UNL     1       5.308 -21.505 -14.757  0.00  0.00    +0.000 HD
ENDBRANCH  18  21
ENDBRANCH  14  15
ENDBRANCH   1  13
TORSDOF 6
ENDMDL
