MODEL 1
REMARK VINA RESULT:    -6.607      0.000      0.000
REMARK INTER + INTRA:          -8.363
REMARK INTER:                  -7.963
REMARK INTRA:                  -0.399
REMARK UNBOUND:                -0.404
REMARK  Name = 
REMARK  5 active torsions:
REMARK  status: ('A' for Active; 'I' for Inactive)
REMARK    1  A    between atoms: C_1  and  O_2
REMARK    2  A    between atoms: O_2  and  C_3
REMARK    3  A    between atoms: C_5  and  O_6
REMARK    4  A    between atoms: C_8  and  C_9
REMARK    5  A    between atoms: C_10  and  C_11
REMARK                            x       y       z     vdW  Elec       q    Type
REMARK                         _______ _______ _______ _____ _____    ______ ____
ROOT
ATOM      1  C   UNL     1      15.200 -23.153 -21.387  0.00  0.00    +0.000 A 
ATOM      2  C   UNL     1      16.263 -22.590 -20.721  0.00  0.00    +0.000 A 
ATOM      3  C   UNL     1      16.127 -22.203 -19.403  0.00  0.00    +0.000 A 
ATOM      4  C   UNL     1      14.936 -22.394 -18.744  0.00  0.00    +0.000 A 
ATOM      5  C   UNL     1      13.874 -22.984 -19.392  0.00  0.00    +0.000 A 
ATOM      6  C   UNL     1      13.977 -23.388 -20.727  0.00  0.00    +0.000 A 
ENDROOT
BRANCH   1   8
ATOM      7  C   UNL     1      16.497 -23.035 -23.441  0.00  0.00    +0.000 C 
ATOM      8  O   UNL     1      15.383 -23.489 -22.685  0.00  0.00    +0.000 OA
ENDBRANCH   1   8
BRANCH   3   9
ATOM      9  O   UNL     1      17.222 -21.604 -18.726  0.00  0.00    +0.000 OA
ATOM     10  H   UNL     1      18.111 -22.065 -18.707  0.00  0.00    +0.000 HD
ENDBRANCH   3   9
BRANCH   5  11
ATOM     11  C   UNL     1      12.568 -23.198 -18.644  0.00  0.00    +0.000 C 
ATOM     12  C   UNL     1      11.564 -22.287 -18.753  0.00  0.00    +0.000 C 
BRANCH  12  13
ATOM     13  C   UNL     1      10.258 -22.500 -18.005  0.00  0.00    +0.000 A 
ATOM     14  C   UNL     1       9.480 -21.433 -17.586  0.00  0.00    +0.000 A 
ATOM     15  C   UNL     1       8.501 -21.778 -16.625  0.00  0.00    +0.000 A 
ATOM     16  C   UNL     1       8.085 -23.009 -16.390  0.00  0.00    +0.000 A 
ATOM     17  C   UNL     1       8.861 -24.020 -16.888  0.00  0.00    +0.000 A 
ATOM     18  C   UNL     1       9.914 -23.753 -17.728  0.00  0.00    +0.000 A 
ENDBRANCH  12  13
ENDBRANCH   5  11
TORSDOF 4
ENDMDL
MODEL 2
REMARK VINA RESULT:    -6.468      1.625      2.162
REMARK INTER + INTRA:          -8.195
REMARK INTER:                  -7.801
REMARK INTRA:                  -0.394
REMARK UNBOUND:                -0.404
REMARK  Name = 
REMARK  5 active torsions:
REMARK  status: ('A' for Active; 'I' for Inactive)
REMARK    1  A    between atoms: C_1  and  O_2
REMARK    2  A    between atoms: O_2  and  C_3
REMARK    3  A    between atoms: C_5  and  O_6
REMARK    4  A    between atoms: C_8  and  C_9
REMARK    5  A    between atoms: C_10  and  C_11
REMARK                            x       y       z     vdW  Elec       q    Type
REMARK                         _______ _______ _______ _____ _____    ______ ____
ROOT
ATOM      1  C   UNL     1      13.364 -22.787 -21.076  0.00  0.00    +0.000 A 
ATOM      2  C   UNL     1      14.258 -21.802 -20.729  0.00  0.00    +0.000 A 
ATOM      3  C   UNL     1      13.999 -20.982 -19.649  0.00  0.00    +0.000 A 
ATOM      4  C   UNL     1      12.858 -21.157 -18.904  0.00  0.00    +0.000 A 
ATOM      5  C   UNL     1      11.970 -22.160 -19.223  0.00  0.00    +0.000 A 
ATOM      6  C   UNL     1      12.201 -23.009 -20.310  0.00  0.00    +0.000 A 
ENDROOT
BRANCH   1   8
ATOM      7  C   UNL     1      14.888 -23.432 -22.857  0.00  0.00    +0.000 C 
ATOM      8  O   UNL     1      13.657 -23.543 -22.159  0.00  0.00    +0.000 OA
ENDBRANCH   1   8
BRANCH   3   9
ATOM      9  O   UNL     1      14.916 -19.952 -19.308  0.00  0.00    +0.000 OA
ATOM     10  H   UNL     1      15.730 -20.168 -18.766  0.00  0.00    +0.000 HD
ENDBRANCH   3   9
BRANCH   5  11
ATOM     11  C   UNL     1      10.719 -22.347 -18.380  0.00  0.00    +0.000 C 
ATOM     12  C   UNL     1       9.980 -21.267 -18.010  0.00  0.00    +0.000 C 
BRANCH  12  13
ATOM     13  C   UNL     1       8.729 -21.454 -17.167  0.00  0.00    +0.000 A 
ATOM     14  C   UNL     1       7.650 -20.591 -17.271  0.00  0.00    +0.000 A 
ATOM     15  C   UNL     1       6.731 -20.690 -16.201  0.00  0.00    +0.000 A 
ATOM     16  C   UNL     1       6.660 -21.712 -15.367  0.00  0.00    +0.000 A 
ATOM     17  C   UNL     1       7.728 -22.566 -15.360  0.00  0.00    +0.000 A 
ATOM     18  C   UNL     1       8.730 -22.453 -16.291  0.00  0.00    +0.000 A 
ENDBRANCH  12  13
ENDBRANCH   5  11
TORSDOF 4
ENDMDL
MODEL 3
REMARK VINA RESULT:    -6.365      1.976      3.117
REMARK INTER + INTRA:          -8.071
REMARK INTER:                  -7.684
REMARK INTRA:                  -0.388
REMARK UNBOUND:                -0.404
REMARK  Name = 
REMARK  5 active torsions:
REMARK  status: ('A' for Active; 'I' for Inactive)
REMARK    1  A    between atoms: C_1  and  O_2
REMARK    2  A    between atoms: O_2  and  C_3
REMARK    3  A    between atoms: C_5  and  O_6
REMARK    4  A    between atoms: C_8  and  C_9
REMARK    5  A    between atoms: C_10  and  C_11
REMARK                            x       y       z     vdW  Elec       q    Type
REMARK                         _______ _______ _______ _____ _____    ______ ____
ROOT
ATOM      1  C   UNL     1      17.835 -22.700 -22.780  0.00  0.00    +0.000 A 
ATOM      2  C   UNL     1      18.804 -22.695 -21.804  0.00  0.00    +0.000 A 
ATOM      3  C   UNL     1      18.443 -22.721 -20.472  0.00  0.00    +0.000 A 
ATOM      4  C   UNL     1      17.117 -22.772 -20.114  0.00  0.00    +0.000 A 
ATOM      5  C   UNL     1      16.139 -22.808 -21.082  0.00  0.00    +0.000 A 
ATOM      6  C   UNL     1      16.469 -22.783 -22.441  0.00  0.00    +0.000 A 
ENDROOT
BRANCH   1   8
ATOM      7  C   UNL     1      17.800 -23.570 -25.050  0.00  0.00    +0.000 C 
ATOM      8  O   UNL     1      18.246 -22.647 -24.068  0.00  0.00    +0.000 OA
ENDBRANCH   1   8
BRANCH   3   9
ATOM      9  O   UNL     1      19.447 -22.695 -19.467  0.00  0.00    +0.000 OA
ATOM     10  H   UNL     1      19.997 -23.513 -19.290  0.00  0.00    +0.000 HD
ENDBRANCH   3   9
BRANCH   5  11
ATOM     11  C   UNL     1      14.678 -22.876 -20.668  0.00  0.00    +0.000 C 
ATOM     12  C   UNL     1      14.235 -23.911 -19.906  0.00  0.00    +0.000 C 
BRANCH  12  13
ATOM     13  C   UNL     1      12.773 -23.980 -19.492  0.00  0.00    +0.000 A 
ATOM     14  C   UNL     1      11.778 -24.303 -20.400  0.00  0.00    +0.000 A 
ATOM     15  C   UNL     1      10.472 -23.992 -19.954  0.00  0.00    +0.000 A 
ATOM     16  C   UNL     1      10.145 -23.763 -18.696  0.00  0.00    +0.000 A 
ATOM     17  C   UNL     1      11.179 -23.518 -17.834  0.00  0.00    +0.000 A 
ATOM     18  C   UNL     1      12.484 -23.674 -18.233  0.00  0.00    +0.000 A 
ENDBRANCH  12  13
ENDBRANCH   5  11
TORSDOF 4
ENDMDL
MODEL 4
REMARK VINA RESULT:    -6.270      2.958      4.886
REMARK INTER + INTRA:          -7.957
REMARK INTER:                  -7.553
REMARK INTRA:                  -0.404
REMARK UNBOUND:                -0.404
REMARK  Name = 
REMARK  5 active torsions:
REMARK  status: ('A' for Active; 'I' for Inactive)
REMARK    1  A    between atoms: C_1  and  O_2
REMARK    2  A    between atoms: O_2  and  C_3
REMARK    3  A    between atoms: C_5  and  O_6
REMARK    4  A    between atoms: C_8  and  C_9
REMARK    5  A    between atoms: C_10  and  C_11
REMARK                            x       y       z     vdW  Elec       q    Type
REMARK                         _______ _______ _______ _____ _____    ______ ____
ROOT
ATOM      1  C   UNL     1      19.478 -22.877 -23.417  0.00  0.00    +0.000 A 
ATOM      2  C   UNL     1      20.688 -22.875 -22.764  0.00  0.00    +0.000 A 
ATOM      3  C   UNL     1      20.729 -22.802 -21.386  0.00  0.00    +0.000 A 
ATOM      4  C   UNL     1      19.564 -22.750 -20.659  0.00  0.00    +0.000 A 
ATOM      5  C   UNL     1      18.347 -22.782 -21.300  0.00  0.00    +0.000 A 
ATOM      6  C   UNL     1      18.267 -22.856 -22.695  0.00  0.00    +0.000 A 
ENDROOT
BRANCH   1   8
ATOM      7  C   UNL     1      20.617 -22.493 -25.531  0.00  0.00    +0.000 C 
ATOM      8  O   UNL     1      19.498 -22.924 -24.769  0.00  0.00    +0.000 OA
ENDBRANCH   1   8
BRANCH   3   9
ATOM      9  O   UNL     1      21.982 -22.780 -20.717  0.00  0.00    +0.000 OA
ATOM     10  H   UNL     1      22.492 -21.922 -20.639  0.00  0.00    +0.000 HD
ENDBRANCH   3   9
BRANCH   5  11
ATOM     11  C   UNL     1      17.068 -22.736 -20.479  0.00  0.00    +0.000 C 
ATOM     12  C   UNL     1      15.862 -22.658 -21.103  0.00  0.00    +0.000 C 
BRANCH  12  13
ATOM     13  C   UNL     1      14.583 -22.611 -20.283  0.00  0.00    +0.000 A 
ATOM     14  C   UNL     1      13.908 -21.421 -20.062  0.00  0.00    +0.000 A 
ATOM     15  C   UNL     1      12.955 -21.488 -19.018  0.00  0.00    +0.000 A 
ATOM     16  C   UNL     1      12.461 -22.609 -18.526  0.00  0.00    +0.000 A 
ATOM     17  C   UNL     1      13.135 -23.758 -18.836  0.00  0.00    +0.000 A 
ATOM     18  C   UNL     1      14.161 -23.751 -19.748  0.00  0.00    +0.000 A 
ENDBRANCH  12  13
ENDBRANCH   5  11
TORSDOF 4
ENDMDL
MODEL 5
REMARK VINA RESULT:    -6.243      1.731      3.492
REMARK INTER + INTRA:          -7.924
REMARK INTER:                  -7.556
REMARK INTRA:                  -0.368
REMARK UNBOUND:                -0.404
REMARK  Name = 
REMARK  5 active torsions:
REMARK  status: ('A' for Active; 'I' for Inactive)
REMARK    1  A    between atoms: C_1  and  O_2
REMARK    2  A    between atoms: O_2  and  C_3
REMARK    3  A    between atoms: C_5  and  O_6
REMARK    4  A    between atoms: C_8  and  C_9
REMARK    5  A    between atoms: C_10  and  C_11
REMARK                            x       y       z     vdW  Elec       q    Type
REMARK                         _______ _______ _______ _____ _____    ______ ____
ROOT
ATOM      1  C   UNL     1      13.905 -23.382 -19.308  0.00  0.00    +0.000 A 
ATOM      2  C   UNL     1      13.558 -24.008 -20.482  0.00  0.00    +0.000 A 
ATOM      3  C   UNL     1      12.239 -24.330 -20.730  0.00  0.00    +0.000 A 
ATOM      4  C   UNL     1      11.264 -24.012 -19.816  0.00  0.00    +0.000 A 
ATOM      5  C   UNL     1      11.595 -23.359 -18.650  0.00  0.00    +0.000 A 
ATOM      6  C   UNL     1      12.921 -23.017 -18.366  0.00  0.00    +0.000 A 
ENDROOT
BRANCH   1   8
ATOM      7  C   UNL     1      16.063 -22.632 -20.138  0.00  0.00    +0.000 C 
ATOM      8  O   UNL     1      15.215 -23.114 -19.106  0.00  0.00    +0.000 OA
ENDBRANCH   1   8
BRANCH   3   9
ATOM      9  O   UNL     1      11.889 -24.994 -21.937  0.00  0.00    +0.000 OA
ATOM     10  H   UNL     1      12.540 -25.618 -22.370  0.00  0.00    +0.000 HD
ENDBRANCH   3   9
BRANCH   5  11
ATOM     11  C   UNL     1      10.501 -23.005 -17.655  0.00  0.00    +0.000 C 
ATOM     12  C   UNL     1       9.621 -22.007 -17.939  0.00  0.00    +0.000 C 
BRANCH  12  13
ATOM     13  C   UNL     1       8.528 -21.652 -16.944  0.00  0.00    +0.000 A 
ATOM     14  C   UNL     1       8.265 -22.449 -15.841  0.00  0.00    +0.000 A 
ATOM     15  C   UNL     1       7.023 -22.178 -15.220  0.00  0.00    +0.000 A 
ATOM     16  C   UNL     1       6.324 -21.072 -15.396  0.00  0.00    +0.000 A 
ATOM     17  C   UNL     1       6.676 -20.292 -16.464  0.00  0.00    +0.000 A 
ATOM     18  C   UNL     1       7.803 -20.568 -17.199  0.00  0.00    +0.000 A 
ENDBRANCH  12  13
ENDBRANCH   5  11
TORSDOF 4
ENDMDL
