MODEL 1
REMARK VINA RESULT:    -7.096      0.000      0.000
REMARK INTER + INTRA:          -8.774
REMARK INTER:                  -8.355
REMARK INTRA:                  -0.419
REMARK UNBOUND:                -0.434
REMARK  Name = 
REMARK  5 active torsions:
REMARK  status: ('A' for Active; 'I' for Inactive)
REMARK    1  A    between atoms: C_4  and  C_5
REMARK    2  A    between atoms: C_14  and  O_15
REMARK    3  A    between atoms: O_15  and  C_16
REMARK    4  A    between atoms: C_18  and  O_19
REMARK    5  A    between atoms: O_19  and  C_20
REMARK                            x       y       z     vdW  Elec       q    Type
REMARK                         _______ _______ _______ _____ _____    ______ ____
ROOT
ATOM      1  O   UNL     1      12.606 -23.658 -22.565  0.00  0.00    +0.000 OA
ATOM      2  C   UNL     1      12.681 -23.288 -21.392  0.00  0.00    +0.000 A 
ATOM      3  C   UNL     1      11.561 -23.151 -20.482  0.00  0.00    +0.000 A 
ATOM      4  C   UNL     1      11.814 -22.767 -19.147  0.00  0.00    +0.000 A 
ATOM      5  O   UNL     1      13.039 -22.440 -18.687  0.00  0.00    +0.000 OA
ATOM      6  C   UNL     1      14.144 -22.562 -19.510  0.00  0.00    +0.000 A 
ATOM      7  C   UNL     1      15.368 -22.256 -18.935  0.00  0.00    +0.000 A 
ATOM      8  C   UNL     1      16.499 -22.390 -19.717  0.00  0.00    +0.000 A 
ATOM      9  C   UNL     1      16.411 -22.812 -21.036  0.00  0.00    +0.000 A 
ATOM     10  C   UNL     1      15.180 -23.104 -21.586  0.00  0.00    +0.000 A 
ATOM     11  C   UNL     1      14.015 -22.977 -20.820  0.00  0.00    +0.000 A 
ENDROOT
BRANCH   4  12
ATOM     12  C   UNL     1      10.645 -22.719 -18.178  0.00  0.00    +0.000 A 
ATOM     13  C   UNL     1      10.227 -23.889 -17.564  0.00  0.00    +0.000 A 
ATOM     14  C   UNL     1       8.971 -23.785 -16.922  0.00  0.00    +0.000 A 
ATOM     15  C   UNL     1       8.389 -22.645 -16.596  0.00  0.00    +0.000 A 
ATOM     16  C   UNL     1       8.891 -21.516 -17.183  0.00  0.00    +0.000 A 
ATOM     17  C   UNL     1      10.042 -21.561 -17.932  0.00  0.00    +0.000 A 
ENDBRANCH   4  12
BRANCH   8  18
ATOM     18  O   UNL     1      17.771 -22.089 -19.163  0.00  0.00    +0.000 OA
ATOM     19  C   UNL     1      18.954 -22.456 -19.859  0.00  0.00    +0.000 C 
ENDBRANCH   8  18
BRANCH  10  20
ATOM     20  O   UNL     1      15.095 -23.534 -22.936  0.00  0.00    +0.000 OA
ATOM     21  C   UNL     1      16.017 -23.043 -23.898  0.00  0.00    +0.000 C 
ENDBRANCH  10  20
TORSDOF 3
ENDMDL
MODEL 2
REMARK VINA RESULT:    -6.964      2.030      4.614
REMARK INTER + INTRA:          -8.620
REMARK INTER:                  -8.203
REMARK INTRA:                  -0.417
REMARK UNBOUND:                -0.434
REMARK  Name = 
REMARK  5 active torsions:
REMARK  status: ('A' for Active; 'I' for Inactive)
REMARK    1  A    between atoms: C_4  and  C_5
REMARK    2  A    between atoms: C_14  and  O_15
REMARK    3  A    between atoms: O_15  and  C_16
REMARK    4  A    between atoms: C_18  and  O_19
REMARK    5  A    between atoms: O_19  and  C_20
REMARK                            x       y       z     vdW  Elec       q    Type
REMARK                         _______ _______ _______ _____ _____    ______ ____
ROOT
ATOM      1  O   UNL     1      18.733 -22.530 -19.413  0.00  0.00    +0.000 OA
ATOM      2  C   UNL     1      17.659 -22.593 -20.016  0.00  0.00    +0.000 A 
ATOM      3  C   UNL     1      16.347 -22.524 -19.403  0.00  0.00    +0.000 A 
ATOM      4  C   UNL     1      15.206 -22.558 -20.235  0.00  0.00    +0.000 A 
ATOM      5  O   UNL     1      15.266 -22.733 -21.572  0.00  0.00    +0.000 OA
ATOM      6  C   UNL     1      16.493 -22.795 -22.208  0.00  0.00    +0.000 A 
ATOM      7  C   UNL     1      16.456 -22.921 -23.588  0.00  0.00    +0.000 A 
ATOM      8  C   UNL     1      17.660 -22.962 -24.265  0.00  0.00    +0.000 A 
ATOM      9  C   UNL     1      18.866 -22.883 -23.583  0.00  0.00    +0.000 A 
ATOM     10  C   UNL     1      18.875 -22.765 -22.209  0.00  0.00    +0.000 A 
ATOM     11  C   UNL     1      17.672 -22.723 -21.494  0.00  0.00    +0.000 A 
ENDROOT
BRANCH   4  12
ATOM     12  C   UNL     1      13.841 -22.389 -19.592  0.00  0.00    +0.000 A 
ATOM     13  C   UNL     1      13.473 -23.231 -18.555  0.00  0.00    +0.000 A 
ATOM     14  C   UNL     1      12.097 -23.180 -18.234  0.00  0.00    +0.000 A 
ATOM     15  C   UNL     1      11.280 -22.204 -18.590  0.00  0.00    +0.000 A 
ATOM     16  C   UNL     1      11.728 -21.365 -19.571  0.00  0.00    +0.000 A 
ATOM     17  C   UNL     1      13.022 -21.439 -20.029  0.00  0.00    +0.000 A 
ENDBRANCH   4  12
BRANCH   8  18
ATOM     18  O   UNL     1      17.664 -23.086 -25.679  0.00  0.00    +0.000 OA
ATOM     19  C   UNL     1      18.688 -22.468 -26.444  0.00  0.00    +0.000 C 
ENDBRANCH   8  18
BRANCH  10  20
ATOM     20  O   UNL     1      20.111 -22.686 -21.515  0.00  0.00    +0.000 OA
ATOM     21  C   UNL     1      21.270 -23.303 -22.058  0.00  0.00    +0.000 C 
ENDBRANCH  10  20
TORSDOF 3
ENDMDL
MODEL 3
REMARK VINA RESULT:    -6.945      1.356      3.538
REMARK INTER + INTRA:          -8.597
REMARK INTER:                  -8.184
REMARK INTRA:                  -0.413
REMARK UNBOUND:                -0.434
REMARK  Name = 
REMARK  5 active torsions:
REMARK  status: ('A' for Active; 'I' for Inactive)
REMARK    1  A    between atoms: C_4  and  C_5
REMARK    2  A    between atoms: C_14  and  O_15
REMARK    3  A    between atoms: O_15  and  C_16
REMARK    4  A    between atoms: C_18  and  O_19
REMARK    5  A    between atoms: O_19  and  C_20
REMARK                            x       y       z     vdW  Elec       q    Type
REMARK                         _______ _______ _______ _____ _____    ______ ____
ROOT
ATOM      1  O   UNL     1      16.961 -22.051 -19.098  0.00  0.00    +0.000 OA
ATOM      2  C   UNL     1      15.863 -22.374 -19.556  0.00  0.00    +0.000 A 
ATOM      3  C   UNL     1      14.614 -22.370 -18.821  0.00  0.00    +0.000 A 
ATOM      4  C   UNL     1      13.425 -22.717 -19.501  0.00  0.00    +0.000 A 
ATOM      5  O   UNL     1      13.397 -23.132 -20.785  0.00  0.00    +0.000 OA
ATOM      6  C   UNL     1      14.560 -23.145 -21.535  0.00  0.00    +0.000 A 
ATOM      7  C   UNL     1      14.425 -23.533 -22.859  0.00  0.00    +0.000 A 
ATOM      8  C   UNL     1      15.559 -23.535 -23.648  0.00  0.00    +0.000 A 
ATOM      9  C   UNL     1      16.792 -23.164 -23.130  0.00  0.00    +0.000 A 
ATOM     10  C   UNL     1      16.899 -22.789 -21.808  0.00  0.00    +0.000 A 
ATOM     11  C   UNL     1      15.769 -22.777 -20.981  0.00  0.00    +0.000 A 
ENDROOT
BRANCH   4  12
ATOM     12  C   UNL     1      12.109 -22.618 -18.748  0.00  0.00    +0.000 A 
ATOM     13  C   UNL     1      11.711 -23.674 -17.944  0.00  0.00    +0.000 A 
ATOM     14  C   UNL     1      10.359 -23.602 -17.531  0.00  0.00    +0.000 A 
ATOM     15  C   UNL     1       9.622 -22.506 -17.567  0.00  0.00    +0.000 A 
ATOM     16  C   UNL     1      10.104 -21.474 -18.324  0.00  0.00    +0.000 A 
ATOM     17  C   UNL     1      11.364 -21.526 -18.869  0.00  0.00    +0.000 A 
ENDBRANCH   4  12
BRANCH   8  18
ATOM     18  O   UNL     1      15.461 -23.923 -25.011  0.00  0.00    +0.000 OA
ATOM     19  C   UNL     1      14.629 -25.013 -25.381  0.00  0.00    +0.000 C 
ENDBRANCH   8  18
BRANCH  10  20
ATOM     20  O   UNL     1      18.163 -22.412 -21.282  0.00  0.00    +0.000 OA
ATOM     21  C   UNL     1      19.311 -23.200 -21.559  0.00  0.00    +0.000 C 
ENDBRANCH  10  20
TORSDOF 3
ENDMDL
MODEL 4
REMARK VINA RESULT:    -6.902      1.428      2.085
REMARK INTER + INTRA:          -8.546
REMARK INTER:                  -8.112
REMARK INTRA:                  -0.434
REMARK UNBOUND:                -0.434
REMARK  Name = 
REMARK  5 active torsions:
REMARK  status: ('A' for Active; 'I' for Inactive)
REMARK    1  A    between atoms: C_4  and  C_5
REMARK    2  A    between atoms: C_14  and  O_15
REMARK    3  A    between atoms: O_15  and  C_16
REMARK    4  A    between atoms: C_18  and  O_19
REMARK    5  A    between atoms: O_19  and  C_20
REMARK                            x       y       z     vdW  Elec       q    Type
REMARK                         _______ _______ _______ _____ _____    ______ ____
ROOT
ATOM      1  O   UNL     1      14.098 -22.746 -23.870  0.00  0.00    +0.000 OA
ATOM      2  C   UNL     1      14.238 -22.666 -22.648  0.00  0.00    +0.000 A 
ATOM      3  C   UNL     1      13.160 -22.584 -21.683  0.00  0.00    +0.000 A 
ATOM      4  C   UNL     1      13.480 -22.551 -20.308  0.00  0.00    +0.000 A 
ATOM      5  O   UNL     1      14.745 -22.510 -19.840  0.00  0.00    +0.000 OA
ATOM      6  C   UNL     1      15.811 -22.595 -20.717  0.00  0.00    +0.000 A 
ATOM      7  C   UNL     1      17.073 -22.601 -20.142  0.00  0.00    +0.000 A 
ATOM      8  C   UNL     1      18.164 -22.710 -20.982  0.00  0.00    +0.000 A 
ATOM      9  C   UNL     1      18.001 -22.807 -22.357  0.00  0.00    +0.000 A 
ATOM     10  C   UNL     1      16.736 -22.792 -22.904  0.00  0.00    +0.000 A 
ATOM     11  C   UNL     1      15.610 -22.681 -22.080  0.00  0.00    +0.000 A 
ENDROOT
BRANCH   4  12
ATOM     12  C   UNL     1      12.341 -22.561 -19.303  0.00  0.00    +0.000 A 
ATOM     13  C   UNL     1      12.214 -23.636 -18.437  0.00  0.00    +0.000 A 
ATOM     14  C   UNL     1      10.973 -23.682 -17.759  0.00  0.00    +0.000 A 
ATOM     15  C   UNL     1      10.144 -22.661 -17.642  0.00  0.00    +0.000 A 
ATOM     16  C   UNL     1      10.364 -21.601 -18.478  0.00  0.00    +0.000 A 
ATOM     17  C   UNL     1      11.487 -21.545 -19.268  0.00  0.00    +0.000 A 
ENDBRANCH   4  12
BRANCH   8  18
ATOM     18  O   UNL     1      19.472 -22.723 -20.431  0.00  0.00    +0.000 OA
ATOM     19  C   UNL     1      20.604 -22.783 -21.287  0.00  0.00    +0.000 C 
ENDBRANCH   8  18
BRANCH  10  20
ATOM     20  O   UNL     1      16.574 -22.890 -24.311  0.00  0.00    +0.000 OA
ATOM     21  C   UNL     1      17.304 -23.863 -25.044  0.00  0.00    +0.000 C 
ENDBRANCH  10  20
TORSDOF 3
ENDMDL
MODEL 5
REMARK VINA RESULT:    -6.847      2.866      8.489
REMARK INTER + INTRA:          -8.481
REMARK INTER:                  -8.025
REMARK INTRA:                  -0.457
REMARK UNBOUND:                -0.434
REMARK  Name = 
REMARK  5 active torsions:
REMARK  status: ('A' for Active; 'I' for Inactive)
REMARK    1  A    between atoms: C_4  and  C_5
REMARK    2  A    between atoms: C_14  and  O_15
REMARK    3  A    between atoms: O_15  and  C_16
REMARK    4  A    between atoms: C_18  and  O_19
REMARK    5  A    between atoms: O_19  and  C_20
REMARK                            x       y       z     vdW  Elec       q    Type
REMARK                         _______ _______ _______ _____ _____    ______ ____
ROOT
ATOM      1  O   UNL     1      17.474 -22.872 -19.476  0.00  0.00    +0.000 OA
ATOM      2  C   UNL     1      17.396 -22.790 -20.704  0.00  0.00    +0.000 A 
ATOM      3  C   UNL     1      18.521 -22.791 -21.617  0.00  0.00    +0.000 A 
ATOM      4  C   UNL     1      18.268 -22.744 -23.006  0.00  0.00    +0.000 A 
ATOM      5  O   UNL     1      17.032 -22.616 -23.533  0.00  0.00    +0.000 OA
ATOM      6  C   UNL     1      15.923 -22.620 -22.706  0.00  0.00    +0.000 A 
ATOM      7  C   UNL     1      14.693 -22.540 -23.339  0.00  0.00    +0.000 A 
ATOM      8  C   UNL     1      13.559 -22.565 -22.551  0.00  0.00    +0.000 A 
ATOM      9  C   UNL     1      13.650 -22.665 -21.169  0.00  0.00    +0.000 A 
ATOM     10  C   UNL     1      14.887 -22.736 -20.564  0.00  0.00    +0.000 A 
ATOM     11  C   UNL     1      16.055 -22.711 -21.335  0.00  0.00    +0.000 A 
ENDROOT
BRANCH   4  12
ATOM     12  C   UNL     1      19.449 -22.842 -23.957  0.00  0.00    +0.000 A 
ATOM     13  C   UNL     1      20.643 -23.376 -23.499  0.00  0.00    +0.000 A 
ATOM     14  C   UNL     1      21.741 -23.153 -24.362  0.00  0.00    +0.000 A 
ATOM     15  C   UNL     1      21.636 -22.807 -25.633  0.00  0.00    +0.000 A 
ATOM     16  C   UNL     1      20.413 -22.351 -26.040  0.00  0.00    +0.000 A 
ATOM     17  C   UNL     1      19.322 -22.416 -25.209  0.00  0.00    +0.000 A 
ENDBRANCH   4  12
BRANCH   8  18
ATOM     18  O   UNL     1      12.280 -22.489 -23.162  0.00  0.00    +0.000 OA
ATOM     19  C   UNL     1      12.170 -22.187 -24.546  0.00  0.00    +0.000 C 
ENDBRANCH   8  18
BRANCH  10  20
ATOM     20  O   UNL     1      14.976 -22.837 -19.151  0.00  0.00    +0.000 OA
ATOM     21  C   UNL     1      13.795 -22.963 -18.372  0.00  0.00    +0.000 C 
ENDBRANCH  10  20
TORSDOF 3
ENDMDL
