REMARK  Name = 
REMARK  6 active torsions:
REMARK  status: ('A' for Active; 'I' for Inactive)
REMARK    1  A    between atoms: C_1  and  C_2
REMARK    2  A    between atoms: C_5  and  C_6
REMARK    3  A    between atoms: C_8  and  C_9
REMARK    4  A    between atoms: N_14  and  C_15
REMARK    5  A    between atoms: C_18  and  S_19
REMARK    6  A    between atoms: S_19  and  N_20
REMARK                            x       y       z     vdW  Elec       q    Type
REMARK                         _______ _______ _______ _____ _____    ______ ____
ROOT
ATOM      1  C   UNL     1      -3.319   0.014  -0.045  0.00  0.00    +0.000 A 
ATOM      2  C   UNL     1      -4.100   0.562  -1.007  0.00  0.00    +0.000 A 
ATOM      3  C   UNL     1      -5.379   0.320  -0.631  0.00  0.00    +0.000 A 
ATOM      4  N   UNL     1      -5.336  -0.332   0.499  0.00  0.00    +0.000 NA
ATOM      5  N   UNL     1      -4.112  -0.510   0.849  0.00  0.00    +0.000 N 
ENDROOT
BRANCH   1  10
ATOM      6  C   UNL     1       2.492   0.004  -0.014  0.00  0.00    +0.000 C 
ATOM      7  C   UNL     1       0.991  -0.005   0.013  0.00  0.00    +0.000 A 
ATOM      8  C   UNL     1       0.258  -1.197   0.006  0.00  0.00    +0.000 A 
ATOM      9  C   UNL     1      -1.108  -1.202   0.001  0.00  0.00    +0.000 A 
ATOM     10  C   UNL     1      -1.799   0.010  -0.013  0.00  0.00    +0.000 A 
ATOM     11  C   UNL     1      -1.109   1.206   0.002  0.00  0.00    +0.000 A 
ATOM     12  C   UNL     1       0.275   1.184   0.005  0.00  0.00    +0.000 A 
ENDBRANCH   1  10
BRANCH   5  13
ATOM     13  C   UNL     1      -3.673  -1.200   2.071  0.00  0.00    +0.000 A 
ATOM     14  C   UNL     1      -4.168  -2.467   2.329  0.00  0.00    +0.000 A 
ATOM     15  C   UNL     1      -4.078  -2.852   3.688  0.00  0.00    +0.000 A 
ATOM     16  C   UNL     1      -3.297  -2.272   4.580  0.00  0.00    +0.000 A 
ATOM     17  C   UNL     1      -2.783  -1.052   4.238  0.00  0.00    +0.000 A 
ATOM     18  C   UNL     1      -2.941  -0.550   2.969  0.00  0.00    +0.000 A 
BRANCH  16  19
ATOM     19  S   UNL     1      -2.925  -3.050   6.171  0.00  0.00    +0.000 S 
ATOM     20  O   UNL     1      -2.236  -4.396   5.932  0.00  0.00    +0.000 OA
ATOM     21  O   UNL     1      -1.999  -2.140   6.981  0.00  0.00    +0.000 OA
BRANCH  19  22
ATOM     22  N   UNL     1      -4.421  -3.308   7.062  0.00  0.00    +0.000 NA
ATOM     23  H   UNL     1      -4.211  -3.746   7.959  0.00  0.00    +0.000 HD
ATOM     24  H   UNL     1      -4.880  -2.411   7.222  0.00  0.00    +0.000 HD
ENDBRANCH  19  22
ENDBRANCH  16  19
ENDBRANCH   5  13
BRANCH   3  25
ATOM     25  C   UNL     1      -6.633   0.732  -1.386  0.00  0.00    +0.000 C 
ATOM     26  F   UNL     1      -7.334  -0.352  -1.705  0.00  0.00    +0.000 F 
ATOM     27  F   UNL     1      -7.371   1.528  -0.618  0.00  0.00    +0.000 F 
ATOM     28  F   UNL     1      -6.289   1.380  -2.495  0.00  0.00    +0.000 F 
ENDBRANCH   3  25
TORSDOF 5
