REMARK  Name = 
REMARK  10 active torsions:
REMARK  status: ('A' for Active; 'I' for Inactive)
REMARK    1  A    between atoms: C_1  and  C_2
REMARK    2  A    between atoms: C_2  and  C_3
REMARK    3  A    between atoms: C_15  and  O_16
REMARK    4  A    between atoms: O_16  and  C_17
REMARK    5  A    between atoms: C_21  and  C_22
REMARK    6  A    between atoms: C_22  and  C_26
REMARK    7  A    between atoms: C_23  and  O_24
REMARK    8  A    between atoms: O_24  and  C_25
REMARK    9  A    between atoms: C_26  and  O_28
REMARK   10  A    between atoms: O_28  and  C_29
REMARK                            x       y       z     vdW  Elec       q    Type
REMARK                         _______ _______ _______ _____ _____    ______ ____
ROOT
ATOM      1  C   UNL     1       1.062  -1.347   1.993  0.00  0.00    +0.000 C 
ATOM      2  C   UNL     1       2.150  -2.384   2.088  0.00  0.00    +0.000 C 
ATOM      3  N   UNL     1       3.445  -2.047   1.997  0.00  0.00    +0.000 NA
ATOM      4  C   UNL     1       4.462  -3.062   2.345  0.00  0.00    +0.000 C 
ATOM      5  C   UNL     1       5.206  -2.598   3.602  0.00  0.00    +0.000 C 
ATOM      6  C   UNL     1       5.560  -1.140   3.459  0.00  0.00    +0.000 A 
ATOM      7  C   UNL     1       4.989  -0.295   2.571  0.00  0.00    +0.000 A 
ATOM      8  N   UNL     1       5.532   0.954   2.700  0.00  0.00    +0.000 N 
ATOM      9  C   UNL     1       6.476   0.947   3.688  0.00  0.00    +0.000 A 
ATOM     10  C   UNL     1       7.301   1.948   4.198  0.00  0.00    +0.000 A 
ATOM     11  C   UNL     1       8.159   1.589   5.222  0.00  0.00    +0.000 A 
ATOM     12  C   UNL     1       8.210   0.301   5.728  0.00  0.00    +0.000 A 
ATOM     13  C   UNL     1       7.411  -0.705   5.244  0.00  0.00    +0.000 A 
ATOM     14  C   UNL     1       6.533  -0.371   4.208  0.00  0.00    +0.000 A 
ATOM     15  C   UNL     1       3.917  -0.726   1.599  0.00  0.00    +0.000 C 
ATOM     16  C   UNL     1       2.827   0.320   1.498  0.00  0.00    +0.000 C 
ATOM     17  C   UNL     1       1.655   0.001   2.424  0.00  0.00    +0.000 C 
ATOM     18  H   UNL     1       5.272   1.768   2.143  0.00  0.00    +0.000 HD
ENDROOT
BRANCH   1  20
ATOM     19  C   UNL     1      -0.659  -0.466   3.542  0.00  0.00    +0.000 C 
ATOM     20  C   UNL     1      -0.106  -1.723   2.890  0.00  0.00    +0.000 C 
ENDBRANCH   1  20
BRANCH  13  21
ATOM     21  O   UNL     1       7.473  -2.022   5.770  0.00  0.00    +0.000 OA
ATOM     22  C   UNL     1       8.377  -2.325   6.822  0.00  0.00    +0.000 C 
ENDBRANCH  13  21
BRANCH  17  23
ATOM     23  C   UNL     1       2.143  -0.087   3.861  0.00  0.00    +0.000 C 
ATOM     24  C   UNL     1       1.254  -0.328   4.862  0.00  0.00    +0.000 C 
BRANCH  24  25
ATOM     25  O   UNL     1      -0.124  -0.498   4.562  0.00  0.00    +0.000 OA
ATOM     26  C   UNL     1      -0.573  -0.416   3.217  0.00  0.00    +0.000 C 
ENDBRANCH  24  25
BRANCH  23  27
ATOM     27  C   UNL     1       3.618   0.095   4.182  0.00  0.00    +0.000 C 
ATOM     28  O   UNL     1       4.448   0.320   3.247  0.00  0.00    +0.000 OA
BRANCH  27  29
ATOM     29  O   UNL     1       4.067   0.013   5.526  0.00  0.00    +0.000 OA
ATOM     30  C   UNL     1       5.445   0.183   5.826  0.00  0.00    +0.000 C 
ENDBRANCH  27  29
ENDBRANCH  23  27
ENDBRANCH  17  23
TORSDOF 6
