MODEL 1
REMARK VINA RESULT:    -5.631      0.000      0.000
REMARK INTER + INTRA:          -3.191
REMARK INTER:                  -7.635
REMARK INTRA:                   4.444
REMARK UNBOUND:                 4.415
REMARK  Name = 
REMARK  10 active torsions:
REMARK  status: ('A' for Active; 'I' for Inactive)
REMARK    1  A    between atoms: C_1  and  C_2
REMARK    2  A    between atoms: C_2  and  C_3
REMARK    3  A    between atoms: C_15  and  O_16
REMARK    4  A    between atoms: O_16  and  C_17
REMARK    5  A    between atoms: C_21  and  C_22
REMARK    6  A    between atoms: C_22  and  C_26
REMARK    7  A    between atoms: C_23  and  O_24
REMARK    8  A    between atoms: O_24  and  C_25
REMARK    9  A    between atoms: C_26  and  O_28
REMARK   10  A    between atoms: O_28  and  C_29
REMARK                            x       y       z     vdW  Elec       q    Type
REMARK                         _______ _______ _______ _____ _____    ______ ____
ROOT
ATOM      1  C   UNL     1      57.154 -30.664  24.368  0.00  0.00    +0.000 C 
ATOM      2  C   UNL     1      57.573 -29.240  24.628  0.00  0.00    +0.000 C 
ATOM      3  N   UNL     1      56.856 -28.207  24.164  0.00  0.00    +0.000 NA
ATOM      4  C   UNL     1      57.175 -26.851  24.659  0.00  0.00    +0.000 C 
ATOM      5  C   UNL     1      55.985 -26.336  25.476  0.00  0.00    +0.000 C 
ATOM      6  C   UNL     1      54.708 -26.625  24.729  0.00  0.00    +0.000 A 
ATOM      7  C   UNL     1      54.595 -27.519  23.721  0.00  0.00    +0.000 A 
ATOM      8  N   UNL     1      53.306 -27.543  23.261  0.00  0.00    +0.000 N 
ATOM      9  C   UNL     1      52.546 -26.657  23.972  0.00  0.00    +0.000 A 
ATOM     10  C   UNL     1      51.198 -26.311  23.895  0.00  0.00    +0.000 A 
ATOM     11  C   UNL     1      50.746 -25.356  24.788  0.00  0.00    +0.000 A 
ATOM     12  C   UNL     1      51.580 -24.760  25.719  0.00  0.00    +0.000 A 
ATOM     13  C   UNL     1      52.911 -25.079  25.817  0.00  0.00    +0.000 A 
ATOM     14  C   UNL     1      53.396 -26.042  24.927  0.00  0.00    +0.000 A 
ATOM     15  C   UNL     1      55.757 -28.338  23.214  0.00  0.00    +0.000 C 
ATOM     16  C   UNL     1      55.335 -29.767  22.945  0.00  0.00    +0.000 C 
ATOM     17  C   UNL     1      55.638 -30.676  24.135  0.00  0.00    +0.000 C 
ATOM     18  H   UNL     1      52.964 -28.132  22.503  0.00  0.00    +0.000 HD
ENDROOT
BRANCH   1  20
ATOM     19  C   UNL     1      57.555 -32.996  25.100  0.00  0.00    +0.000 C 
ATOM     20  C   UNL     1      57.515 -31.545  25.552  0.00  0.00    +0.000 C 
ENDBRANCH   1  20
BRANCH  13  21
ATOM     21  O   UNL     1      53.756 -24.460  26.775  0.00  0.00    +0.000 OA
ATOM     22  C   UNL     1      54.207 -23.129  26.571  0.00  0.00    +0.000 C 
ENDBRANCH  13  21
BRANCH  17  23
ATOM     23  C   UNL     1      54.923 -30.159  25.373  0.00  0.00    +0.000 C 
ATOM     24  C   UNL     1      53.582 -29.932  25.333  0.00  0.00    +0.000 C 
BRANCH  24  25
ATOM     25  O   UNL     1      52.856 -30.180  24.138  0.00  0.00    +0.000 OA
ATOM     26  C   UNL     1      51.856 -31.188  24.111  0.00  0.00    +0.000 C 
ENDBRANCH  24  25
BRANCH  23  27
ATOM     27  C   UNL     1      55.700 -29.893  26.653  0.00  0.00    +0.000 C 
ATOM     28  O   UNL     1      56.013 -28.704  26.970  0.00  0.00    +0.000 OA
BRANCH  27  29
ATOM     29  O   UNL     1      56.076 -30.975  27.492  0.00  0.00    +0.000 OA
ATOM     30  C   UNL     1      56.572 -30.720  28.798  0.00  0.00    +0.000 C 
ENDBRANCH  27  29
ENDBRANCH  23  27
ENDBRANCH  17  23
TORSDOF 6
ENDMDL
MODEL 2
REMARK VINA RESULT:    -5.579      1.788      2.540
REMARK INTER + INTRA:          -3.121
REMARK INTER:                  -7.536
REMARK INTRA:                   4.415
REMARK UNBOUND:                 4.415
REMARK  Name = 
REMARK  10 active torsions:
REMARK  status: ('A' for Active; 'I' for Inactive)
REMARK    1  A    between atoms: C_1  and  C_2
REMARK    2  A    between atoms: C_2  and  C_3
REMARK    3  A    between atoms: C_15  and  O_16
REMARK    4  A    between atoms: O_16  and  C_17
REMARK    5  A    between atoms: C_21  and  C_22
REMARK    6  A    between atoms: C_22  and  C_26
REMARK    7  A    between atoms: C_23  and  O_24
REMARK    8  A    between atoms: O_24  and  C_25
REMARK    9  A    between atoms: C_26  and  O_28
REMARK   10  A    between atoms: O_28  and  C_29
REMARK                            x       y       z     vdW  Elec       q    Type
REMARK                         _______ _______ _______ _____ _____    ______ ____
ROOT
ATOM      1  C   UNL     1      57.892 -29.259  26.644  0.00  0.00    +0.000 C 
ATOM      2  C   UNL     1      57.192 -28.018  27.133  0.00  0.00    +0.000 C 
ATOM      3  N   UNL     1      56.583 -27.179  26.282  0.00  0.00    +0.000 NA
ATOM      4  C   UNL     1      55.710 -26.124  26.839  0.00  0.00    +0.000 C 
ATOM      5  C   UNL     1      54.266 -26.408  26.411  0.00  0.00    +0.000 C 
ATOM      6  C   UNL     1      54.244 -26.762  24.946  0.00  0.00    +0.000 A 
ATOM      7  C   UNL     1      55.326 -27.145  24.232  0.00  0.00    +0.000 A 
ATOM      8  N   UNL     1      54.966 -27.395  22.936  0.00  0.00    +0.000 N 
ATOM      9  C   UNL     1      53.626 -27.180  22.780  0.00  0.00    +0.000 A 
ATOM     10  C   UNL     1      52.785 -27.292  21.674  0.00  0.00    +0.000 A 
ATOM     11  C   UNL     1      51.450 -26.992  21.872  0.00  0.00    +0.000 A 
ATOM     12  C   UNL     1      50.954 -26.597  23.103  0.00  0.00    +0.000 A 
ATOM     13  C   UNL     1      51.758 -26.476  24.208  0.00  0.00    +0.000 A 
ATOM     14  C   UNL     1      53.114 -26.773  24.038  0.00  0.00    +0.000 A 
ATOM     15  C   UNL     1      56.708 -27.257  24.831  0.00  0.00    +0.000 C 
ATOM     16  C   UNL     1      57.413 -28.501  24.334  0.00  0.00    +0.000 C 
ATOM     17  C   UNL     1      57.254 -29.666  25.309  0.00  0.00    +0.000 C 
ATOM     18  H   UNL     1      55.602 -27.697  22.198  0.00  0.00    +0.000 HD
ENDROOT
BRANCH   1  20
ATOM     19  C   UNL     1      58.406 -29.953  28.966  0.00  0.00    +0.000 C 
ATOM     20  C   UNL     1      57.752 -30.379  27.661  0.00  0.00    +0.000 C 
ENDBRANCH   1  20
BRANCH  13  21
ATOM     21  O   UNL     1      51.239 -26.069  25.465  0.00  0.00    +0.000 OA
ATOM     22  C   UNL     1      51.006 -24.693  25.726  0.00  0.00    +0.000 C 
ENDBRANCH  13  21
BRANCH  17  23
ATOM     23  C   UNL     1      55.778 -29.967  25.514  0.00  0.00    +0.000 C 
ATOM     24  C   UNL     1      54.975 -30.173  24.436  0.00  0.00    +0.000 C 
BRANCH  24  25
ATOM     25  O   UNL     1      55.517 -30.108  23.124  0.00  0.00    +0.000 OA
ATOM     26  C   UNL     1      55.019 -30.965  22.107  0.00  0.00    +0.000 C 
ENDBRANCH  24  25
BRANCH  23  27
ATOM     27  C   UNL     1      55.198 -30.036  26.918  0.00  0.00    +0.000 C 
ATOM     28  O   UNL     1      54.543 -29.052  27.384  0.00  0.00    +0.000 OA
BRANCH  27  29
ATOM     29  O   UNL     1      55.388 -31.200  27.707  0.00  0.00    +0.000 OA
ATOM     30  C   UNL     1      54.941 -32.462  27.232  0.00  0.00    +0.000 C 
ENDBRANCH  27  29
ENDBRANCH  23  27
ENDBRANCH  17  23
TORSDOF 6
ENDMDL
