MODEL 1
REMARK VINA RESULT:    -6.277      0.000      0.000
REMARK INTER + INTRA:          -9.042
REMARK INTER:                  -7.689
REMARK INTRA:                  -1.353
REMARK UNBOUND:                -1.113
REMARK  Name = 
REMARK  6 active torsions:
REMARK  status: ('A' for Active; 'I' for Inactive)
REMARK    1  A    between atoms: C_1  and  C_2
REMARK    2  A    between atoms: C_5  and  C_6
REMARK    3  A    between atoms: C_8  and  C_9
REMARK    4  A    between atoms: N_14  and  C_15
REMARK    5  A    between atoms: C_18  and  S_19
REMARK    6  A    between atoms: S_19  and  N_20
REMARK                            x       y       z     vdW  Elec       q    Type
REMARK                         _______ _______ _______ _____ _____    ______ ____
ROOT
ATOM      1  C   UNL     1      52.844 -26.944  24.219  0.00  0.00    +0.000 A 
ATOM      2  C   UNL     1      51.779 -26.216  23.804  0.00  0.00    +0.000 A 
ATOM      3  C   UNL     1      51.618 -25.234  24.723  0.00  0.00    +0.000 A 
ATOM      4  N   UNL     1      52.552 -25.386  25.623  0.00  0.00    +0.000 NA
ATOM      5  N   UNL     1      53.283 -26.400  25.321  0.00  0.00    +0.000 N 
ENDROOT
BRANCH   1  10
ATOM      6  C   UNL     1      55.116 -31.632  21.644  0.00  0.00    +0.000 C 
ATOM      7  C   UNL     1      54.509 -30.414  22.279  0.00  0.00    +0.000 A 
ATOM      8  C   UNL     1      54.882 -29.120  21.900  0.00  0.00    +0.000 A 
ATOM      9  C   UNL     1      54.350 -28.013  22.499  0.00  0.00    +0.000 A 
ATOM     10  C   UNL     1      53.421 -28.170  23.529  0.00  0.00    +0.000 A 
ATOM     11  C   UNL     1      53.024 -29.432  23.924  0.00  0.00    +0.000 A 
ATOM     12  C   UNL     1      53.579 -30.537  23.302  0.00  0.00    +0.000 A 
ENDBRANCH   1  10
BRANCH   5  13
ATOM     13  C   UNL     1      54.436 -26.874  26.099  0.00  0.00    +0.000 A 
ATOM     14  C   UNL     1      55.708 -26.543  25.664  0.00  0.00    +0.000 A 
ATOM     15  C   UNL     1      56.725 -27.389  26.168  0.00  0.00    +0.000 A 
ATOM     16  C   UNL     1      56.588 -28.182  27.213  0.00  0.00    +0.000 A 
ATOM     17  C   UNL     1      55.310 -28.416  27.638  0.00  0.00    +0.000 A 
ATOM     18  C   UNL     1      54.251 -27.723  27.103  0.00  0.00    +0.000 A 
BRANCH  16  19
ATOM     19  S   UNL     1      58.017 -28.921  28.043  0.00  0.00    +0.000 S 
ATOM     20  O   UNL     1      58.691 -27.872  28.931  0.00  0.00    +0.000 OA
ATOM     21  O   UNL     1      57.556 -30.098  28.905  0.00  0.00    +0.000 OA
BRANCH  19  22
ATOM     22  N   UNL     1      59.165 -29.492  26.837  0.00  0.00    +0.000 NA
ATOM     23  H   UNL     1      59.737 -30.236  27.237  0.00  0.00    +0.000 HD
ATOM     24  H   UNL     1      58.658 -29.852  26.028  0.00  0.00    +0.000 HD
ENDBRANCH  19  22
ENDBRANCH  16  19
ENDBRANCH   5  13
BRANCH   3  25
ATOM     25  C   UNL     1      50.548 -24.154  24.710  0.00  0.00    +0.000 C 
ATOM     26  F   UNL     1      50.277 -23.816  23.453  0.00  0.00    +0.000 F 
ATOM     27  F   UNL     1      49.446 -24.615  25.294  0.00  0.00    +0.000 F 
ATOM     28  F   UNL     1      50.987 -23.087  25.371  0.00  0.00    +0.000 F 
ENDBRANCH   3  25
TORSDOF 5
ENDMDL
MODEL 2
REMARK VINA RESULT:    -6.164      3.470      5.173
REMARK INTER + INTRA:          -8.898
REMARK INTER:                  -7.583
REMARK INTRA:                  -1.315
REMARK UNBOUND:                -1.113
REMARK  Name = 
REMARK  6 active torsions:
REMARK  status: ('A' for Active; 'I' for Inactive)
REMARK    1  A    between atoms: C_1  and  C_2
REMARK    2  A    between atoms: C_5  and  C_6
REMARK    3  A    between atoms: C_8  and  C_9
REMARK    4  A    between atoms: N_14  and  C_15
REMARK    5  A    between atoms: C_18  and  S_19
REMARK    6  A    between atoms: S_19  and  N_20
REMARK                            x       y       z     vdW  Elec       q    Type
REMARK                         _______ _______ _______ _____ _____    ______ ____
ROOT
ATOM      1  C   UNL     1      54.167 -28.304  22.999  0.00  0.00    +0.000 A 
ATOM      2  C   UNL     1      53.534 -28.318  21.801  0.00  0.00    +0.000 A 
ATOM      3  C   UNL     1      53.589 -29.599  21.366  0.00  0.00    +0.000 A 
ATOM      4  N   UNL     1      54.219 -30.293  22.275  0.00  0.00    +0.000 NA
ATOM      5  N   UNL     1      54.558 -29.523  23.247  0.00  0.00    +0.000 N 
ENDROOT
BRANCH   1  10
ATOM      6  C   UNL     1      55.017 -23.722  26.471  0.00  0.00    +0.000 C 
ATOM      7  C   UNL     1      54.777 -24.884  25.552  0.00  0.00    +0.000 A 
ATOM      8  C   UNL     1      53.534 -25.524  25.476  0.00  0.00    +0.000 A 
ATOM      9  C   UNL     1      53.327 -26.600  24.660  0.00  0.00    +0.000 A 
ATOM     10  C   UNL     1      54.381 -27.090  23.890  0.00  0.00    +0.000 A 
ATOM     11  C   UNL     1      55.619 -26.480  23.933  0.00  0.00    +0.000 A 
ATOM     12  C   UNL     1      55.804 -25.392  24.769  0.00  0.00    +0.000 A 
ENDBRANCH   1  10
BRANCH   5  13
ATOM     13  C   UNL     1      55.280 -29.953  24.454  0.00  0.00    +0.000 A 
ATOM     14  C   UNL     1      54.557 -30.166  25.616  0.00  0.00    +0.000 A 
ATOM     15  C   UNL     1      55.338 -30.117  26.794  0.00  0.00    +0.000 A 
ATOM     16  C   UNL     1      56.653 -30.225  26.826  0.00  0.00    +0.000 A 
ATOM     17  C   UNL     1      57.305 -30.074  25.634  0.00  0.00    +0.000 A 
ATOM     18  C   UNL     1      56.608 -29.983  24.454  0.00  0.00    +0.000 A 
BRANCH  16  19
ATOM     19  S   UNL     1      57.546 -30.559  28.364  0.00  0.00    +0.000 S 
ATOM     20  O   UNL     1      56.797 -29.921  29.537  0.00  0.00    +0.000 OA
ATOM     21  O   UNL     1      57.642 -32.071  28.582  0.00  0.00    +0.000 OA
BRANCH  19  22
ATOM     22  N   UNL     1      59.165 -29.876  28.262  0.00  0.00    +0.000 NA
ATOM     23  H   UNL     1      59.855 -30.615  28.403  0.00  0.00    +0.000 HD
ATOM     24  H   UNL     1      59.300 -29.458  27.342  0.00  0.00    +0.000 HD
ENDBRANCH  19  22
ENDBRANCH  16  19
ENDBRANCH   5  13
BRANCH   3  25
ATOM     25  C   UNL     1      53.021 -30.132  20.060  0.00  0.00    +0.000 C 
ATOM     26  F   UNL     1      53.868 -29.871  19.069  0.00  0.00    +0.000 F 
ATOM     27  F   UNL     1      52.843 -31.446  20.157  0.00  0.00    +0.000 F 
ATOM     28  F   UNL     1      51.854 -29.544  19.812  0.00  0.00    +0.000 F 
ENDBRANCH   3  25
TORSDOF 5
ENDMDL
MODEL 3
REMARK VINA RESULT:    -6.100      4.364      5.856
REMARK INTER + INTRA:          -8.817
REMARK INTER:                  -7.764
REMARK INTRA:                  -1.053
REMARK UNBOUND:                -1.113
REMARK  Name = 
REMARK  6 active torsions:
REMARK  status: ('A' for Active; 'I' for Inactive)
REMARK    1  A    between atoms: C_1  and  C_2
REMARK    2  A    between atoms: C_5  and  C_6
REMARK    3  A    between atoms: C_8  and  C_9
REMARK    4  A    between atoms: N_14  and  C_15
REMARK    5  A    between atoms: C_18  and  S_19
REMARK    6  A    between atoms: S_19  and  N_20
REMARK                            x       y       z     vdW  Elec       q    Type
REMARK                         _______ _______ _______ _____ _____    ______ ____
ROOT
ATOM      1  C   UNL     1      55.846 -27.107  26.097  0.00  0.00    +0.000 A 
ATOM      2  C   UNL     1      56.146 -26.131  26.987  0.00  0.00    +0.000 A 
ATOM      3  C   UNL     1      55.658 -24.983  26.459  0.00  0.00    +0.000 A 
ATOM      4  N   UNL     1      55.098 -25.285  25.319  0.00  0.00    +0.000 NA
ATOM      5  N   UNL     1      55.206 -26.549  25.107  0.00  0.00    +0.000 N 
ENDROOT
BRANCH   1  10
ATOM      6  C   UNL     1      57.146 -32.756  26.508  0.00  0.00    +0.000 C 
ATOM      7  C   UNL     1      56.810 -31.295  26.438  0.00  0.00    +0.000 A 
ATOM      8  C   UNL     1      55.535 -30.813  26.757  0.00  0.00    +0.000 A 
ATOM      9  C   UNL     1      55.223 -29.486  26.665  0.00  0.00    +0.000 A 
ATOM     10  C   UNL     1      56.192 -28.582  26.227  0.00  0.00    +0.000 A 
ATOM     11  C   UNL     1      57.463 -29.020  25.912  0.00  0.00    +0.000 A 
ATOM     12  C   UNL     1      57.753 -30.370  26.012  0.00  0.00    +0.000 A 
ENDBRANCH   1  10
BRANCH   5  13
ATOM     13  C   UNL     1      54.687 -27.256  23.926  0.00  0.00    +0.000 A 
ATOM     14  C   UNL     1      53.319 -27.275  23.715  0.00  0.00    +0.000 A 
ATOM     15  C   UNL     1      52.885 -28.322  22.868  0.00  0.00    +0.000 A 
ATOM     16  C   UNL     1      53.671 -29.002  22.055  0.00  0.00    +0.000 A 
ATOM     17  C   UNL     1      55.016 -28.887  22.271  0.00  0.00    +0.000 A 
ATOM     18  C   UNL     1      55.511 -27.980  23.177  0.00  0.00    +0.000 A 
BRANCH  16  19
ATOM     19  S   UNL     1      53.005 -30.032  20.724  0.00  0.00    +0.000 S 
ATOM     20  O   UNL     1      52.536 -31.370  21.300  0.00  0.00    +0.000 OA
ATOM     21  O   UNL     1      51.823 -29.316  20.067  0.00  0.00    +0.000 OA
BRANCH  19  22
ATOM     22  N   UNL     1      54.258 -30.319  19.521  0.00  0.00    +0.000 NA
ATOM     23  H   UNL     1      55.094 -29.788  19.768  0.00  0.00    +0.000 HD
ATOM     24  H   UNL     1      54.484 -31.314  19.497  0.00  0.00    +0.000 HD
ENDBRANCH  19  22
ENDBRANCH  16  19
ENDBRANCH   5  13
BRANCH   3  25
ATOM     25  C   UNL     1      55.747 -23.597  27.079  0.00  0.00    +0.000 C 
ATOM     26  F   UNL     1      54.529 -23.187  27.422  0.00  0.00    +0.000 F 
ATOM     27  F   UNL     1      56.521 -23.644  28.159  0.00  0.00    +0.000 F 
ATOM     28  F   UNL     1      56.268 -22.750  26.196  0.00  0.00    +0.000 F 
ENDBRANCH   3  25
TORSDOF 5
ENDMDL
MODEL 4
REMARK VINA RESULT:    -6.077     14.471     15.755
REMARK INTER + INTRA:          -8.789
REMARK INTER:                  -7.676
REMARK INTRA:                  -1.113
REMARK UNBOUND:                -1.113
REMARK  Name = 
REMARK  6 active torsions:
REMARK  status: ('A' for Active; 'I' for Inactive)
REMARK    1  A    between atoms: C_1  and  C_2
REMARK    2  A    between atoms: C_5  and  C_6
REMARK    3  A    between atoms: C_8  and  C_9
REMARK    4  A    between atoms: N_14  and  C_15
REMARK    5  A    between atoms: C_18  and  S_19
REMARK    6  A    between atoms: S_19  and  N_20
REMARK                            x       y       z     vdW  Elec       q    Type
REMARK                         _______ _______ _______ _____ _____    ______ ____
ROOT
ATOM      1  C   UNL     1      46.753 -28.741  12.854  0.00  0.00    +0.000 A 
ATOM      2  C   UNL     1      46.523 -27.514  13.379  0.00  0.00    +0.000 A 
ATOM      3  C   UNL     1      47.516 -26.718  12.915  0.00  0.00    +0.000 A 
ATOM      4  N   UNL     1      48.280 -27.452  12.153  0.00  0.00    +0.000 NA
ATOM      5  N   UNL     1      47.824 -28.653  12.113  0.00  0.00    +0.000 N 
ENDROOT
BRANCH   1  10
ATOM      6  C   UNL     1      43.513 -33.471  13.799  0.00  0.00    +0.000 C 
ATOM      7  C   UNL     1      44.375 -32.271  13.539  0.00  0.00    +0.000 A 
ATOM      8  C   UNL     1      45.554 -32.036  14.257  0.00  0.00    +0.000 A 
ATOM      9  C   UNL     1      46.321 -30.928  14.038  0.00  0.00    +0.000 A 
ATOM     10  C   UNL     1      45.919 -29.991  13.086  0.00  0.00    +0.000 A 
ATOM     11  C   UNL     1      44.766 -30.193  12.353  0.00  0.00    +0.000 A 
ATOM     12  C   UNL     1      44.005 -31.323  12.595  0.00  0.00    +0.000 A 
ENDBRANCH   1  10
BRANCH   5  13
ATOM     13  C   UNL     1      48.419 -29.760  11.350  0.00  0.00    +0.000 A 
ATOM     14  C   UNL     1      49.666 -30.228  11.728  0.00  0.00    +0.000 A 
ATOM     15  C   UNL     1      50.347 -30.935  10.708  0.00  0.00    +0.000 A 
ATOM     16  C   UNL     1      49.770 -31.435   9.631  0.00  0.00    +0.000 A 
ATOM     17  C   UNL     1      48.511 -30.984   9.349  0.00  0.00    +0.000 A 
ATOM     18  C   UNL     1      47.832 -30.184  10.236  0.00  0.00    +0.000 A 
BRANCH  16  19
ATOM     19  S   UNL     1      50.601 -32.656   8.585  0.00  0.00    +0.000 S 
ATOM     20  O   UNL     1      51.555 -31.940   7.625  0.00  0.00    +0.000 OA
ATOM     21  O   UNL     1      51.394 -33.627   9.462  0.00  0.00    +0.000 OA
BRANCH  19  22
ATOM     22  N   UNL     1      49.400 -33.549   7.658  0.00  0.00    +0.000 NA
ATOM     23  H   UNL     1      48.580 -32.961   7.508  0.00  0.00    +0.000 HD
ATOM     24  H   UNL     1      49.796 -33.815   6.757  0.00  0.00    +0.000 HD
ENDBRANCH  19  22
ENDBRANCH  16  19
ENDBRANCH   5  13
BRANCH   3  25
ATOM     25  C   UNL     1      47.706 -25.241  13.225  0.00  0.00    +0.000 C 
ATOM     26  F   UNL     1      48.301 -24.646  12.196  0.00  0.00    +0.000 F 
ATOM     27  F   UNL     1      46.521 -24.677  13.440  0.00  0.00    +0.000 F 
ATOM     28  F   UNL     1      48.462 -25.111  14.311  0.00  0.00    +0.000 F 
ENDBRANCH   3  25
TORSDOF 5
ENDMDL
