MODEL 1
REMARK VINA RESULT:    -6.757      0.000      0.000
REMARK INTER + INTRA:          -0.117
REMARK INTER:                  -6.948
REMARK INTRA:                   6.831
REMARK UNBOUND:                 9.010
REMARK  Name = 
REMARK  10 active torsions:
REMARK  status: ('A' for Active; 'I' for Inactive)
REMARK    1  A    between atoms: C_1  and  C_2
REMARK    2  A    between atoms: C_2  and  C_3
REMARK    3  A    between atoms: C_15  and  O_16
REMARK    4  A    between atoms: O_16  and  C_17
REMARK    5  A    between atoms: C_21  and  C_22
REMARK    6  A    between atoms: C_22  and  C_26
REMARK    7  A    between atoms: C_23  and  O_24
REMARK    8  A    between atoms: O_24  and  C_25
REMARK    9  A    between atoms: C_26  and  O_28
REMARK   10  A    between atoms: O_28  and  C_29
REMARK                            x       y       z     vdW  Elec       q    Type
REMARK                         _______ _______ _______ _____ _____    ______ ____
ROOT
ATOM      1  C   UNL     1      43.893  27.532  94.999  0.00  0.00    +0.000 C 
ATOM      2  C   UNL     1      45.353  27.784  95.272  0.00  0.00    +0.000 C 
ATOM      3  N   UNL     1      46.210  28.063  94.280  0.00  0.00    +0.000 NA
ATOM      4  C   UNL     1      47.563  28.543  94.633  0.00  0.00    +0.000 C 
ATOM      5  C   UNL     1      47.709  29.991  94.155  0.00  0.00    +0.000 C 
ATOM      6  C   UNL     1      47.170  30.107  92.752  0.00  0.00    +0.000 A 
ATOM      7  C   UNL     1      46.352  29.204  92.167  0.00  0.00    +0.000 A 
ATOM      8  N   UNL     1      46.046  29.606  90.896  0.00  0.00    +0.000 N 
ATOM      9  C   UNL     1      46.664  30.794  90.626  0.00  0.00    +0.000 A 
ATOM     10  C   UNL     1      46.673  31.606  89.493  0.00  0.00    +0.000 A 
ATOM     11  C   UNL     1      47.421  32.768  89.563  0.00  0.00    +0.000 A 
ATOM     12  C   UNL     1      48.134  33.123  90.696  0.00  0.00    +0.000 A 
ATOM     13  C   UNL     1      48.145  32.342  91.825  0.00  0.00    +0.000 A 
ATOM     14  C   UNL     1      47.397  31.161  91.783  0.00  0.00    +0.000 A 
ATOM     15  C   UNL     1      45.882  27.949  92.863  0.00  0.00    +0.000 C 
ATOM     16  C   UNL     1      44.417  27.692  92.583  0.00  0.00    +0.000 C 
ATOM     17  C   UNL     1      43.526  28.248  93.693  0.00  0.00    +0.000 C 
ATOM     18  H   UNL     1      45.447  29.096  90.247  0.00  0.00    +0.000 HD
ENDROOT
BRANCH   1  20
ATOM     19  C   UNL     1      41.602  27.618  95.938  0.00  0.00    +0.000 C 
ATOM     20  C   UNL     1      43.044  28.054  96.146  0.00  0.00    +0.000 C 
ENDBRANCH   1  20
BRANCH  13  21
ATOM     21  O   UNL     1      48.881  32.715  92.980  0.00  0.00    +0.000 OA
ATOM     22  C   UNL     1      50.292  32.563  93.003  0.00  0.00    +0.000 C 
ENDBRANCH  13  21
BRANCH  17  23
ATOM     23  C   UNL     1      43.761  29.742  93.841  0.00  0.00    +0.000 C 
ATOM     24  C   UNL     1      43.443  30.580  92.818  0.00  0.00    +0.000 C 
BRANCH  24  25
ATOM     25  O   UNL     1      42.893  30.057  91.617  0.00  0.00    +0.000 OA
ATOM     26  C   UNL     1      41.501  29.792  91.530  0.00  0.00    +0.000 C 
ENDBRANCH  24  25
BRANCH  23  27
ATOM     27  C   UNL     1      44.349  30.302  95.127  0.00  0.00    +0.000 C 
ATOM     28  O   UNL     1      44.140  29.710  96.231  0.00  0.00    +0.000 OA
BRANCH  27  29
ATOM     29  O   UNL     1      45.131  31.486  95.092  0.00  0.00    +0.000 OA
ATOM     30  C   UNL     1      44.758  32.559  94.241  0.00  0.00    +0.000 C 
ENDBRANCH  27  29
ENDBRANCH  23  27
ENDBRANCH  17  23
TORSDOF 6
ENDMDL
MODEL 2
REMARK VINA RESULT:    -4.326      1.691      6.323
REMARK INTER + INTRA:           3.167
REMARK INTER:                  -3.429
REMARK INTRA:                   6.596
REMARK UNBOUND:                 9.010
REMARK  Name = 
REMARK  10 active torsions:
REMARK  status: ('A' for Active; 'I' for Inactive)
REMARK    1  A    between atoms: C_1  and  C_2
REMARK    2  A    between atoms: C_2  and  C_3
REMARK    3  A    between atoms: C_15  and  O_16
REMARK    4  A    between atoms: O_16  and  C_17
REMARK    5  A    between atoms: C_21  and  C_22
REMARK    6  A    between atoms: C_22  and  C_26
REMARK    7  A    between atoms: C_23  and  O_24
REMARK    8  A    between atoms: O_24  and  C_25
REMARK    9  A    between atoms: C_26  and  O_28
REMARK   10  A    between atoms: O_28  and  C_29
REMARK                            x       y       z     vdW  Elec       q    Type
REMARK                         _______ _______ _______ _____ _____    ______ ____
ROOT
ATOM      1  C   UNL     1      47.283  30.435  91.401  0.00  0.00    +0.000 C 
ATOM      2  C   UNL     1      45.887  30.273  90.860  0.00  0.00    +0.000 C 
ATOM      3  N   UNL     1      45.037  29.376  91.381  0.00  0.00    +0.000 NA
ATOM      4  C   UNL     1      43.615  29.438  90.978  0.00  0.00    +0.000 C 
ATOM      5  C   UNL     1      42.777  29.823  92.202  0.00  0.00    +0.000 C 
ATOM      6  C   UNL     1      43.228  29.010  93.388  0.00  0.00    +0.000 A 
ATOM      7  C   UNL     1      44.407  28.353  93.464  0.00  0.00    +0.000 A 
ATOM      8  N   UNL     1      44.509  27.716  94.671  0.00  0.00    +0.000 N 
ATOM      9  C   UNL     1      43.387  27.952  95.413  0.00  0.00    +0.000 A 
ATOM     10  C   UNL     1      43.007  27.537  96.688  0.00  0.00    +0.000 A 
ATOM     11  C   UNL     1      41.775  27.970  97.145  0.00  0.00    +0.000 A 
ATOM     12  C   UNL     1      40.946  28.777  96.385  0.00  0.00    +0.000 A 
ATOM     13  C   UNL     1      41.293  29.200  95.126  0.00  0.00    +0.000 A 
ATOM     14  C   UNL     1      42.533  28.777  94.638  0.00  0.00    +0.000 A 
ATOM     15  C   UNL     1      45.422  28.353  92.346  0.00  0.00    +0.000 C 
ATOM     16  C   UNL     1      46.826  28.508  92.890  0.00  0.00    +0.000 C 
ATOM     17  C   UNL     1      47.282  29.965  92.862  0.00  0.00    +0.000 C 
ATOM     18  H   UNL     1      45.303  27.151  94.971  0.00  0.00    +0.000 HD
ENDROOT
BRANCH   1  20
ATOM     19  C   UNL     1      48.592  32.072  90.081  0.00  0.00    +0.000 C 
ATOM     20  C   UNL     1      47.720  31.888  91.312  0.00  0.00    +0.000 C 
ENDBRANCH   1  20
BRANCH  13  21
ATOM     21  O   UNL     1      40.433  30.026  94.355  0.00  0.00    +0.000 OA
ATOM     22  C   UNL     1      39.672  29.466  93.296  0.00  0.00    +0.000 C 
ENDBRANCH  13  21
BRANCH  17  23
ATOM     23  C   UNL     1      46.324  30.820  93.676  0.00  0.00    +0.000 C 
ATOM     24  C   UNL     1      46.017  30.461  94.952  0.00  0.00    +0.000 C 
BRANCH  24  25
ATOM     25  O   UNL     1      46.592  29.292  95.518  0.00  0.00    +0.000 OA
ATOM     26  C   UNL     1      48.004  29.175  95.623  0.00  0.00    +0.000 C 
ENDBRANCH  24  25
BRANCH  23  27
ATOM     27  C   UNL     1      45.709  32.071  93.070  0.00  0.00    +0.000 C 
ATOM     28  O   UNL     1      44.448  32.229  93.082  0.00  0.00    +0.000 OA
BRANCH  27  29
ATOM     29  O   UNL     1      46.543  33.063  92.490  0.00  0.00    +0.000 OA
ATOM     30  C   UNL     1      46.603  34.363  93.061  0.00  0.00    +0.000 C 
ENDBRANCH  27  29
ENDBRANCH  23  27
ENDBRANCH  17  23
TORSDOF 6
ENDMDL
