MODEL 1
REMARK VINA RESULT:    -5.371      0.000      0.000
REMARK INTER + INTRA:          -7.584
REMARK INTER:                  -6.985
REMARK INTRA:                  -0.599
REMARK UNBOUND:                -0.800
REMARK  Name = 
REMARK  6 active torsions:
REMARK  status: ('A' for Active; 'I' for Inactive)
REMARK    1  A    between atoms: C_1  and  O_2
REMARK    2  A    between atoms: O_2  and  C_3
REMARK    3  A    between atoms: C_6  and  C_7
REMARK    4  A    between atoms: C_7  and  C_9
REMARK    5  A    between atoms: C_10  and  C_11
REMARK    6  A    between atoms: C_17  and  O_18
REMARK                            x       y       z     vdW  Elec       q    Type
REMARK                         _______ _______ _______ _____ _____    ______ ____
ROOT
ATOM      1  C   UNL     1       5.053  -8.989  30.833  0.00  0.00    +0.000 A 
ATOM      2  C   UNL     1       5.510 -10.236  30.479  0.00  0.00    +0.000 A 
ATOM      3  C   UNL     1       4.964 -11.364  31.061  0.00  0.00    +0.000 A 
ATOM      4  C   UNL     1       3.952 -11.248  31.983  0.00  0.00    +0.000 A 
ATOM      5  C   UNL     1       3.466 -10.005  32.323  0.00  0.00    +0.000 A 
ATOM      6  C   UNL     1       3.994  -8.842  31.753  0.00  0.00    +0.000 A 
ENDROOT
BRANCH   1   8
ATOM      7  C   UNL     1       6.341  -8.075  29.024  0.00  0.00    +0.000 C 
ATOM      8  O   UNL     1       5.643  -7.920  30.251  0.00  0.00    +0.000 OA
ENDBRANCH   1   8
BRANCH   4   9
ATOM      9  C   UNL     1       3.366 -12.494  32.626  0.00  0.00    +0.000 C 
ATOM     10  O   UNL     1       2.146 -12.514  32.979  0.00  0.00    +0.000 OA
BRANCH   9  11
ATOM     11  C   UNL     1       4.241 -13.717  32.846  0.00  0.00    +0.000 C 
ATOM     12  C   UNL     1       4.619 -14.066  34.106  0.00  0.00    +0.000 C 
BRANCH  12  13
ATOM     13  C   UNL     1       5.493 -15.290  34.326  0.00  0.00    +0.000 A 
ATOM     14  C   UNL     1       6.860 -15.134  34.161  0.00  0.00    +0.000 A 
ATOM     15  C   UNL     1       7.574 -16.355  34.108  0.00  0.00    +0.000 A 
ATOM     16  C   UNL     1       7.105 -17.516  34.526  0.00  0.00    +0.000 A 
ATOM     17  C   UNL     1       5.755 -17.587  34.736  0.00  0.00    +0.000 A 
ATOM     18  C   UNL     1       4.970 -16.460  34.675  0.00  0.00    +0.000 A 
ENDBRANCH  12  13
ENDBRANCH   9  11
ENDBRANCH   4   9
BRANCH   5  19
ATOM     19  O   UNL     1       2.410  -9.902  33.268  0.00  0.00    +0.000 OA
ATOM     20  H   UNL     1       1.494  -9.637  32.968  0.00  0.00    +0.000 HD
ENDBRANCH   5  19
TORSDOF 5
ENDMDL
MODEL 2
REMARK VINA RESULT:    -5.052      3.209      7.809
REMARK INTER + INTRA:          -7.181
REMARK INTER:                  -6.543
REMARK INTRA:                  -0.638
REMARK UNBOUND:                -0.800
REMARK  Name = 
REMARK  6 active torsions:
REMARK  status: ('A' for Active; 'I' for Inactive)
REMARK    1  A    between atoms: C_1  and  O_2
REMARK    2  A    between atoms: O_2  and  C_3
REMARK    3  A    between atoms: C_6  and  C_7
REMARK    4  A    between atoms: C_7  and  C_9
REMARK    5  A    between atoms: C_10  and  C_11
REMARK    6  A    between atoms: C_17  and  O_18
REMARK                            x       y       z     vdW  Elec       q    Type
REMARK                         _______ _______ _______ _____ _____    ______ ____
ROOT
ATOM      1  C   UNL     1       5.108 -17.299  34.141  0.00  0.00    +0.000 A 
ATOM      2  C   UNL     1       4.391 -16.923  33.030  0.00  0.00    +0.000 A 
ATOM      3  C   UNL     1       4.921 -16.008  32.141  0.00  0.00    +0.000 A 
ATOM      4  C   UNL     1       6.174 -15.483  32.351  0.00  0.00    +0.000 A 
ATOM      5  C   UNL     1       6.914 -15.876  33.444  0.00  0.00    +0.000 A 
ATOM      6  C   UNL     1       6.408 -16.799  34.365  0.00  0.00    +0.000 A 
ENDROOT
BRANCH   1   8
ATOM      7  C   UNL     1       3.734 -19.239  34.481  0.00  0.00    +0.000 C 
ATOM      8  O   UNL     1       4.528 -18.177  34.990  0.00  0.00    +0.000 OA
ENDBRANCH   1   8
BRANCH   4   9
ATOM      9  C   UNL     1       6.744 -14.469  31.373  0.00  0.00    +0.000 C 
ATOM     10  O   UNL     1       7.687 -14.801  30.589  0.00  0.00    +0.000 OA
BRANCH   9  11
ATOM     11  C   UNL     1       6.184 -13.056  31.333  0.00  0.00    +0.000 C 
ATOM     12  C   UNL     1       6.635 -12.171  30.402  0.00  0.00    +0.000 C 
BRANCH  12  13
ATOM     13  C   UNL     1       6.075 -10.759  30.362  0.00  0.00    +0.000 A 
ATOM     14  C   UNL     1       6.337 -10.002  29.232  0.00  0.00    +0.000 A 
ATOM     15  C   UNL     1       6.029  -8.628  29.378  0.00  0.00    +0.000 A 
ATOM     16  C   UNL     1       5.245  -8.132  30.318  0.00  0.00    +0.000 A 
ATOM     17  C   UNL     1       4.969  -8.954  31.376  0.00  0.00    +0.000 A 
ATOM     18  C   UNL     1       5.351 -10.274  31.364  0.00  0.00    +0.000 A 
ENDBRANCH  12  13
ENDBRANCH   9  11
ENDBRANCH   4   9
BRANCH   5  19
ATOM     19  O   UNL     1       8.212 -15.332  33.641  0.00  0.00    +0.000 OA
ATOM     20  H   UNL     1       8.762 -15.056  32.854  0.00  0.00    +0.000 HD
ENDBRANCH   5  19
TORSDOF 5
ENDMDL
MODEL 3
REMARK VINA RESULT:    -4.851      3.993      4.756
REMARK INTER + INTRA:          -6.928
REMARK INTER:                  -6.256
REMARK INTRA:                  -0.672
REMARK UNBOUND:                -0.800
REMARK  Name = 
REMARK  6 active torsions:
REMARK  status: ('A' for Active; 'I' for Inactive)
REMARK    1  A    between atoms: C_1  and  O_2
REMARK    2  A    between atoms: O_2  and  C_3
REMARK    3  A    between atoms: C_6  and  C_7
REMARK    4  A    between atoms: C_7  and  C_9
REMARK    5  A    between atoms: C_10  and  C_11
REMARK    6  A    between atoms: C_17  and  O_18
REMARK                            x       y       z     vdW  Elec       q    Type
REMARK                         _______ _______ _______ _____ _____    ______ ____
ROOT
ATOM      1  C   UNL     1       7.910 -13.237  26.182  0.00  0.00    +0.000 A 
ATOM      2  C   UNL     1       8.620 -13.860  27.179  0.00  0.00    +0.000 A 
ATOM      3  C   UNL     1       8.262 -13.679  28.502  0.00  0.00    +0.000 A 
ATOM      4  C   UNL     1       7.185 -12.890  28.826  0.00  0.00    +0.000 A 
ATOM      5  C   UNL     1       6.447 -12.285  27.832  0.00  0.00    +0.000 A 
ATOM      6  C   UNL     1       6.781 -12.447  26.484  0.00  0.00    +0.000 A 
ENDROOT
BRANCH   1   8
ATOM      7  C   UNL     1       7.980 -12.489  23.900  0.00  0.00    +0.000 C 
ATOM      8  O   UNL     1       8.322 -13.429  24.908  0.00  0.00    +0.000 OA
ENDBRANCH   1   8
BRANCH   4   9
ATOM      9  C   UNL     1       6.806 -12.688  30.284  0.00  0.00    +0.000 C 
ATOM     10  O   UNL     1       6.724 -11.513  30.762  0.00  0.00    +0.000 OA
BRANCH   9  11
ATOM     11  C   UNL     1       6.523 -13.890  31.169  0.00  0.00    +0.000 C 
ATOM     12  C   UNL     1       6.678 -13.794  32.518  0.00  0.00    +0.000 C 
BRANCH  12  13
ATOM     13  C   UNL     1       6.395 -14.997  33.402  0.00  0.00    +0.000 A 
ATOM     14  C   UNL     1       7.483 -15.731  33.846  0.00  0.00    +0.000 A 
ATOM     15  C   UNL     1       7.137 -16.976  34.424  0.00  0.00    +0.000 A 
ATOM     16  C   UNL     1       5.929 -17.295  34.850  0.00  0.00    +0.000 A 
ATOM     17  C   UNL     1       4.904 -16.491  34.431  0.00  0.00    +0.000 A 
ATOM     18  C   UNL     1       5.155 -15.325  33.748  0.00  0.00    +0.000 A 
ENDBRANCH  12  13
ENDBRANCH   9  11
ENDBRANCH   4   9
BRANCH   5  19
ATOM     19  O   UNL     1       5.328 -11.483  28.183  0.00  0.00    +0.000 OA
ATOM     20  H   UNL     1       4.769 -11.724  28.976  0.00  0.00    +0.000 HD
ENDBRANCH   5  19
TORSDOF 5
ENDMDL
MODEL 4
REMARK VINA RESULT:    -4.819      3.714      7.318
REMARK INTER + INTRA:          -6.887
REMARK INTER:                  -6.142
REMARK INTRA:                  -0.745
REMARK UNBOUND:                -0.800
REMARK  Name = 
REMARK  6 active torsions:
REMARK  status: ('A' for Active; 'I' for Inactive)
REMARK    1  A    between atoms: C_1  and  O_2
REMARK    2  A    between atoms: O_2  and  C_3
REMARK    3  A    between atoms: C_6  and  C_7
REMARK    4  A    between atoms: C_7  and  C_9
REMARK    5  A    between atoms: C_10  and  C_11
REMARK    6  A    between atoms: C_17  and  O_18
REMARK                            x       y       z     vdW  Elec       q    Type
REMARK                         _______ _______ _______ _____ _____    ______ ____
ROOT
ATOM      1  C   UNL     1       8.650 -16.617  30.431  0.00  0.00    +0.000 A 
ATOM      2  C   UNL     1       7.649 -15.992  29.726  0.00  0.00    +0.000 A 
ATOM      3  C   UNL     1       6.756 -15.164  30.378  0.00  0.00    +0.000 A 
ATOM      4  C   UNL     1       6.873 -14.946  31.729  0.00  0.00    +0.000 A 
ATOM      5  C   UNL     1       7.890 -15.543  32.441  0.00  0.00    +0.000 A 
ATOM      6  C   UNL     1       8.812 -16.387  31.813  0.00  0.00    +0.000 A 
ENDROOT
BRANCH   1   8
ATOM      7  C   UNL     1       9.853 -17.117  28.413  0.00  0.00    +0.000 C 
ATOM      8  O   UNL     1       9.478 -17.437  29.745  0.00  0.00    +0.000 OA
ENDBRANCH   1   8
BRANCH   4   9
ATOM      9  C   UNL     1       5.879 -14.042  32.440  0.00  0.00    +0.000 C 
ATOM     10  O   UNL     1       5.412 -14.376  33.573  0.00  0.00    +0.000 OA
BRANCH   9  11
ATOM     11  C   UNL     1       5.443 -12.736  31.794  0.00  0.00    +0.000 C 
ATOM     12  C   UNL     1       6.359 -11.761  31.546  0.00  0.00    +0.000 C 
BRANCH  12  13
ATOM     13  C   UNL     1       5.923 -10.456  30.900  0.00  0.00    +0.000 A 
ATOM     14  C   UNL     1       6.461 -10.148  29.661  0.00  0.00    +0.000 A 
ATOM     15  C   UNL     1       6.231  -8.813  29.253  0.00  0.00    +0.000 A 
ATOM     16  C   UNL     1       5.314  -8.018  29.771  0.00  0.00    +0.000 A 
ATOM     17  C   UNL     1       4.771  -8.412  30.964  0.00  0.00    +0.000 A 
ATOM     18  C   UNL     1       5.051  -9.649  31.493  0.00  0.00    +0.000 A 
ENDBRANCH  12  13
ENDBRANCH   9  11
ENDBRANCH   4   9
BRANCH   5  19
ATOM     19  O   UNL     1       8.005 -15.297  33.835  0.00  0.00    +0.000 OA
ATOM     20  H   UNL     1       7.439 -15.810  34.481  0.00  0.00    +0.000 HD
ENDBRANCH   5  19
TORSDOF 5
ENDMDL
MODEL 5
REMARK VINA RESULT:    -4.754      6.593      8.465
REMARK INTER + INTRA:          -6.804
REMARK INTER:                  -6.004
REMARK INTRA:                  -0.800
REMARK UNBOUND:                -0.800
REMARK  Name = 
REMARK  6 active torsions:
REMARK  status: ('A' for Active; 'I' for Inactive)
REMARK    1  A    between atoms: C_1  and  O_2
REMARK    2  A    between atoms: O_2  and  C_3
REMARK    3  A    between atoms: C_6  and  C_7
REMARK    4  A    between atoms: C_7  and  C_9
REMARK    5  A    between atoms: C_10  and  C_11
REMARK    6  A    between atoms: C_17  and  O_18
REMARK                            x       y       z     vdW  Elec       q    Type
REMARK                         _______ _______ _______ _____ _____    ______ ____
ROOT
ATOM      1  C   UNL     1      11.780 -17.835  26.979  0.00  0.00    +0.000 A 
ATOM      2  C   UNL     1      10.420 -17.895  26.787  0.00  0.00    +0.000 A 
ATOM      3  C   UNL     1       9.589 -17.001  27.436  0.00  0.00    +0.000 A 
ATOM      4  C   UNL     1      10.118 -16.038  28.261  0.00  0.00    +0.000 A 
ATOM      5  C   UNL     1      11.481 -15.949  28.437  0.00  0.00    +0.000 A 
ATOM      6  C   UNL     1      12.351 -16.837  27.796  0.00  0.00    +0.000 A 
ENDROOT
BRANCH   1   8
ATOM      7  C   UNL     1      13.887 -18.963  26.740  0.00  0.00    +0.000 C 
ATOM      8  O   UNL     1      12.540 -18.752  26.339  0.00  0.00    +0.000 OA
ENDBRANCH   1   8
BRANCH   4   9
ATOM      9  C   UNL     1       9.196 -15.066  28.980  0.00  0.00    +0.000 C 
ATOM     10  O   UNL     1       9.077 -13.873  28.560  0.00  0.00    +0.000 OA
BRANCH   9  11
ATOM     11  C   UNL     1       8.414 -15.524  30.200  0.00  0.00    +0.000 C 
ATOM     12  C   UNL     1       9.059 -16.128  31.235  0.00  0.00    +0.000 C 
BRANCH  12  13
ATOM     13  C   UNL     1       8.276 -16.585  32.455  0.00  0.00    +0.000 A 
ATOM     14  C   UNL     1       7.955 -17.930  32.538  0.00  0.00    +0.000 A 
ATOM     15  C   UNL     1       7.003 -18.230  33.542  0.00  0.00    +0.000 A 
ATOM     16  C   UNL     1       6.698 -17.432  34.549  0.00  0.00    +0.000 A 
ATOM     17  C   UNL     1       7.103 -16.130  34.437  0.00  0.00    +0.000 A 
ATOM     18  C   UNL     1       7.926 -15.732  33.411  0.00  0.00    +0.000 A 
ENDBRANCH  12  13
ENDBRANCH   9  11
ENDBRANCH   4   9
BRANCH   5  19
ATOM     19  O   UNL     1      12.013 -14.940  29.283  0.00  0.00    +0.000 OA
ATOM     20  H   UNL     1      12.981 -14.700  29.227  0.00  0.00    +0.000 HD
ENDBRANCH   5  19
TORSDOF 5
ENDMDL
