MODEL 1
REMARK VINA RESULT:    -4.617      0.000      0.000
REMARK INTER + INTRA:         -10.004
REMARK INTER:                  -7.295
REMARK INTRA:                  -2.709
REMARK UNBOUND:                -3.093
REMARK  Name = 
REMARK  10 active torsions:
REMARK  status: ('A' for Active; 'I' for Inactive)
REMARK    1  A    between atoms: C_1  and  O_2
REMARK    2  A    between atoms: O_2  and  C_3
REMARK    3  A    between atoms: C_5  and  C_6
REMARK    4  A    between atoms: C_7  and  C_8
REMARK    5  A    between atoms: C_8  and  C_10
REMARK    6  A    between atoms: C_10  and  C_11
REMARK    7  A    between atoms: C_11  and  C_12
REMARK    8  A    between atoms: C_12  and  C_13
REMARK    9  A    between atoms: C_13  and  C_14
REMARK   10  A    between atoms: C_22  and  O_23
REMARK                            x       y       z     vdW  Elec       q    Type
REMARK                         _______ _______ _______ _____ _____    ______ ____
ROOT
ATOM      1  C   UNL     1       6.782 -17.665  30.684  0.00  0.00    +0.000 C 
ATOM      2  C   UNL     1       6.796 -18.907  31.239  0.00  0.00    +0.000 C 
ENDROOT
BRANCH   1   5
ATOM      3  C   UNL     1       9.261 -15.105  29.428  0.00  0.00    +0.000 A 
ATOM      4  C   UNL     1       8.079 -15.749  29.708  0.00  0.00    +0.000 A 
ATOM      5  C   UNL     1       8.090 -16.947  30.395  0.00  0.00    +0.000 A 
ATOM      6  C   UNL     1       9.277 -17.491  30.819  0.00  0.00    +0.000 A 
ATOM      7  C   UNL     1      10.466 -16.841  30.570  0.00  0.00    +0.000 A 
ATOM      8  C   UNL     1      10.492 -15.626  29.877  0.00  0.00    +0.000 A 
BRANCH   3  10
ATOM      9  C   UNL     1       8.761 -13.996  27.377  0.00  0.00    +0.000 C 
ATOM     10  O   UNL     1       9.192 -13.949  28.730  0.00  0.00    +0.000 OA
ENDBRANCH   3  10
BRANCH   8  11
ATOM     11  O   UNL     1      11.713 -14.944  29.634  0.00  0.00    +0.000 OA
ATOM     12  H   UNL     1      11.748 -13.946  29.689  0.00  0.00    +0.000 HD
ENDBRANCH   8  11
ENDBRANCH   1   5
BRANCH   2  13
ATOM     13  C   UNL     1       5.488 -19.625  31.527  0.00  0.00    +0.000 C 
ATOM     14  O   UNL     1       4.664 -19.849  30.586  0.00  0.00    +0.000 OA
BRANCH  13  15
ATOM     15  C   UNL     1       5.164 -20.076  32.943  0.00  0.00    +0.000 C 
BRANCH  15  16
ATOM     16  C   UNL     1       3.774 -19.595  33.322  0.00  0.00    +0.000 C 
BRANCH  16  17
ATOM     17  C   UNL     1       3.819 -18.107  33.633  0.00  0.00    +0.000 C 
BRANCH  17  18
ATOM     18  C   UNL     1       4.872 -17.846  34.698  0.00  0.00    +0.000 C 
BRANCH  18  19
ATOM     19  C   UNL     1       5.738 -16.669  34.277  0.00  0.00    +0.000 A 
ATOM     20  C   UNL     1       5.169 -15.530  33.733  0.00  0.00    +0.000 A 
ATOM     21  C   UNL     1       6.099 -14.671  33.099  0.00  0.00    +0.000 A 
ATOM     22  C   UNL     1       7.405 -14.711  33.290  0.00  0.00    +0.000 A 
ATOM     23  C   UNL     1       7.897 -15.834  33.896  0.00  0.00    +0.000 A 
ATOM     24  C   UNL     1       7.053 -16.780  34.423  0.00  0.00    +0.000 A 
ENDBRANCH  18  19
ENDBRANCH  17  18
ENDBRANCH  16  17
ENDBRANCH  15  16
ENDBRANCH  13  15
ENDBRANCH   2  13
TORSDOF 9
ENDMDL
MODEL 2
REMARK VINA RESULT:    -4.531      2.220      3.349
REMARK INTER + INTRA:          -9.876
REMARK INTER:                  -6.888
REMARK INTRA:                  -2.988
REMARK UNBOUND:                -3.093
REMARK  Name = 
REMARK  10 active torsions:
REMARK  status: ('A' for Active; 'I' for Inactive)
REMARK    1  A    between atoms: C_1  and  O_2
REMARK    2  A    between atoms: O_2  and  C_3
REMARK    3  A    between atoms: C_5  and  C_6
REMARK    4  A    between atoms: C_7  and  C_8
REMARK    5  A    between atoms: C_8  and  C_10
REMARK    6  A    between atoms: C_10  and  C_11
REMARK    7  A    between atoms: C_11  and  C_12
REMARK    8  A    between atoms: C_12  and  C_13
REMARK    9  A    between atoms: C_13  and  C_14
REMARK   10  A    between atoms: C_22  and  O_23
REMARK                            x       y       z     vdW  Elec       q    Type
REMARK                         _______ _______ _______ _____ _____    ______ ____
ROOT
ATOM      1  C   UNL     1       4.393 -15.979  31.106  0.00  0.00    +0.000 C 
ATOM      2  C   UNL     1       3.280 -15.982  31.889  0.00  0.00    +0.000 C 
ENDROOT
BRANCH   1   5
ATOM      3  C   UNL     1       6.950 -13.502  29.839  0.00  0.00    +0.000 A 
ATOM      4  C   UNL     1       6.219 -14.655  30.001  0.00  0.00    +0.000 A 
ATOM      5  C   UNL     1       5.185 -14.696  30.917  0.00  0.00    +0.000 A 
ATOM      6  C   UNL     1       4.870 -13.582  31.656  0.00  0.00    +0.000 A 
ATOM      7  C   UNL     1       5.577 -12.412  31.482  0.00  0.00    +0.000 A 
ATOM      8  C   UNL     1       6.629 -12.335  30.564  0.00  0.00    +0.000 A 
BRANCH   3  10
ATOM      9  C   UNL     1       8.838 -14.649  28.943  0.00  0.00    +0.000 C 
ATOM     10  O   UNL     1       7.966 -13.528  28.948  0.00  0.00    +0.000 OA
ENDBRANCH   3  10
BRANCH   8  11
ATOM     11  O   UNL     1       7.347 -11.127  30.368  0.00  0.00    +0.000 OA
ATOM     12  H   UNL     1       8.131 -10.911  30.950  0.00  0.00    +0.000 HD
ENDBRANCH   8  11
ENDBRANCH   1   5
BRANCH   2  13
ATOM     13  C   UNL     1       2.488 -17.266  32.079  0.00  0.00    +0.000 C 
ATOM     14  O   UNL     1       1.236 -17.215  32.295  0.00  0.00    +0.000 OA
BRANCH  13  15
ATOM     15  C   UNL     1       3.193 -18.611  32.011  0.00  0.00    +0.000 C 
BRANCH  15  16
ATOM     16  C   UNL     1       3.177 -19.261  33.385  0.00  0.00    +0.000 C 
BRANCH  16  17
ATOM     17  C   UNL     1       4.255 -18.634  34.255  0.00  0.00    +0.000 C 
BRANCH  17  18
ATOM     18  C   UNL     1       5.595 -18.724  33.543  0.00  0.00    +0.000 C 
BRANCH  18  19
ATOM     19  C   UNL     1       6.354 -17.420  33.724  0.00  0.00    +0.000 A 
ATOM     20  C   UNL     1       5.890 -16.444  34.590  0.00  0.00    +0.000 A 
ATOM     21  C   UNL     1       6.504 -15.181  34.413  0.00  0.00    +0.000 A 
ATOM     22  C   UNL     1       7.642 -14.985  33.773  0.00  0.00    +0.000 A 
ATOM     23  C   UNL     1       8.083 -16.014  32.987  0.00  0.00    +0.000 A 
ATOM     24  C   UNL     1       7.457 -17.236  33.007  0.00  0.00    +0.000 A 
ENDBRANCH  18  19
ENDBRANCH  17  18
ENDBRANCH  16  17
ENDBRANCH  15  16
ENDBRANCH  13  15
ENDBRANCH   2  13
TORSDOF 9
ENDMDL
MODEL 3
REMARK VINA RESULT:    -4.359      2.025      6.071
REMARK INTER + INTRA:          -9.618
REMARK INTER:                  -6.525
REMARK INTRA:                  -3.093
REMARK UNBOUND:                -3.093
REMARK  Name = 
REMARK  10 active torsions:
REMARK  status: ('A' for Active; 'I' for Inactive)
REMARK    1  A    between atoms: C_1  and  O_2
REMARK    2  A    between atoms: O_2  and  C_3
REMARK    3  A    between atoms: C_5  and  C_6
REMARK    4  A    between atoms: C_7  and  C_8
REMARK    5  A    between atoms: C_8  and  C_10
REMARK    6  A    between atoms: C_10  and  C_11
REMARK    7  A    between atoms: C_11  and  C_12
REMARK    8  A    between atoms: C_12  and  C_13
REMARK    9  A    between atoms: C_13  and  C_14
REMARK   10  A    between atoms: C_22  and  O_23
REMARK                            x       y       z     vdW  Elec       q    Type
REMARK                         _______ _______ _______ _____ _____    ______ ____
ROOT
ATOM      1  C   UNL     1       9.326 -16.272  31.474  0.00  0.00    +0.000 C 
ATOM      2  C   UNL     1       9.632 -17.153  30.483  0.00  0.00    +0.000 C 
ENDROOT
BRANCH   1   5
ATOM      3  C   UNL     1       6.575 -18.118  33.292  0.00  0.00    +0.000 A 
ATOM      4  C   UNL     1       7.562 -17.810  32.386  0.00  0.00    +0.000 A 
ATOM      5  C   UNL     1       8.250 -16.617  32.490  0.00  0.00    +0.000 A 
ATOM      6  C   UNL     1       7.965 -15.740  33.508  0.00  0.00    +0.000 A 
ATOM      7  C   UNL     1       6.998 -16.050  34.439  0.00  0.00    +0.000 A 
ATOM      8  C   UNL     1       6.283 -17.250  34.365  0.00  0.00    +0.000 A 
BRANCH   3  10
ATOM      9  C   UNL     1       4.815 -19.327  32.232  0.00  0.00    +0.000 C 
ATOM     10  O   UNL     1       5.918 -19.288  33.126  0.00  0.00    +0.000 OA
ENDBRANCH   3  10
BRANCH   8  11
ATOM     11  O   UNL     1       5.299 -17.581  35.332  0.00  0.00    +0.000 OA
ATOM     12  H   UNL     1       5.385 -18.423  35.865  0.00  0.00    +0.000 HD
ENDBRANCH   8  11
ENDBRANCH   1   5
BRANCH   2  13
ATOM     13  C   UNL     1      10.708 -16.809  29.466  0.00  0.00    +0.000 C 
ATOM     14  O   UNL     1      11.363 -17.737  28.894  0.00  0.00    +0.000 OA
BRANCH  13  15
ATOM     15  C   UNL     1      11.003 -15.355  29.133  0.00  0.00    +0.000 C 
BRANCH  15  16
ATOM     16  C   UNL     1      10.162 -14.928  27.941  0.00  0.00    +0.000 C 
BRANCH  16  17
ATOM     17  C   UNL     1       9.019 -14.046  28.417  0.00  0.00    +0.000 C 
BRANCH  17  18
ATOM     18  C   UNL     1       7.694 -14.714  28.088  0.00  0.00    +0.000 C 
BRANCH  18  19
ATOM     19  C   UNL     1       6.841 -14.794  29.343  0.00  0.00    +0.000 A 
ATOM     20  C   UNL     1       6.056 -15.906  29.597  0.00  0.00    +0.000 A 
ATOM     21  C   UNL     1       5.087 -15.706  30.609  0.00  0.00    +0.000 A 
ATOM     22  C   UNL     1       5.121 -14.727  31.494  0.00  0.00    +0.000 A 
ATOM     23  C   UNL     1       5.969 -13.689  31.221  0.00  0.00    +0.000 A 
ATOM     24  C   UNL     1       6.852 -13.755  30.171  0.00  0.00    +0.000 A 
ENDBRANCH  18  19
ENDBRANCH  17  18
ENDBRANCH  16  17
ENDBRANCH  15  16
ENDBRANCH  13  15
ENDBRANCH   2  13
TORSDOF 9
ENDMDL
MODEL 4
REMARK VINA RESULT:    -4.342      2.691      4.478
REMARK INTER + INTRA:          -9.592
REMARK INTER:                  -6.782
REMARK INTRA:                  -2.810
REMARK UNBOUND:                -3.093
REMARK  Name = 
REMARK  10 active torsions:
REMARK  status: ('A' for Active; 'I' for Inactive)
REMARK    1  A    between atoms: C_1  and  O_2
REMARK    2  A    between atoms: O_2  and  C_3
REMARK    3  A    between atoms: C_5  and  C_6
REMARK    4  A    between atoms: C_7  and  C_8
REMARK    5  A    between atoms: C_8  and  C_10
REMARK    6  A    between atoms: C_10  and  C_11
REMARK    7  A    between atoms: C_11  and  C_12
REMARK    8  A    between atoms: C_12  and  C_13
REMARK    9  A    between atoms: C_13  and  C_14
REMARK   10  A    between atoms: C_22  and  O_23
REMARK                            x       y       z     vdW  Elec       q    Type
REMARK                         _______ _______ _______ _____ _____    ______ ____
ROOT
ATOM      1  C   UNL     1       6.630 -15.959  30.162  0.00  0.00    +0.000 C 
ATOM      2  C   UNL     1       7.985 -16.059  30.243  0.00  0.00    +0.000 C 
ENDROOT
BRANCH   1   5
ATOM      3  C   UNL     1       5.880 -12.502  31.491  0.00  0.00    +0.000 A 
ATOM      4  C   UNL     1       6.516 -13.553  30.874  0.00  0.00    +0.000 A 
ATOM      5  C   UNL     1       5.913 -14.795  30.827  0.00  0.00    +0.000 A 
ATOM      6  C   UNL     1       4.669 -14.983  31.377  0.00  0.00    +0.000 A 
ATOM      7  C   UNL     1       4.009 -13.930  31.972  0.00  0.00    +0.000 A 
ATOM      8  C   UNL     1       4.589 -12.659  32.038  0.00  0.00    +0.000 A 
BRANCH   3  10
ATOM      9  C   UNL     1       6.473 -10.474  30.386  0.00  0.00    +0.000 C 
ATOM     10  O   UNL     1       6.528 -11.316  31.529  0.00  0.00    +0.000 OA
ENDBRANCH   3  10
BRANCH   8  11
ATOM     11  O   UNL     1       3.905 -11.567  32.634  0.00  0.00    +0.000 OA
ATOM     12  H   UNL     1       4.176 -11.242  33.539  0.00  0.00    +0.000 HD
ENDBRANCH   8  11
ENDBRANCH   1   5
BRANCH   2  13
ATOM     13  C   UNL     1       8.702 -17.222  29.578  0.00  0.00    +0.000 C 
ATOM     14  O   UNL     1       8.703 -17.329  28.311  0.00  0.00    +0.000 OA
BRANCH  13  15
ATOM     15  C   UNL     1       9.417 -18.260  30.428  0.00  0.00    +0.000 C 
BRANCH  15  16
ATOM     16  C   UNL     1       8.394 -19.194  31.055  0.00  0.00    +0.000 C 
BRANCH  16  17
ATOM     17  C   UNL     1       8.392 -19.003  32.563  0.00  0.00    +0.000 C 
BRANCH  17  18
ATOM     18  C   UNL     1       6.958 -18.941  33.063  0.00  0.00    +0.000 C 
BRANCH  18  19
ATOM     19  C   UNL     1       6.715 -17.604  33.742  0.00  0.00    +0.000 A 
ATOM     20  C   UNL     1       5.515 -17.341  34.382  0.00  0.00    +0.000 A 
ATOM     21  C   UNL     1       5.309 -15.972  34.676  0.00  0.00    +0.000 A 
ATOM     22  C   UNL     1       6.262 -15.059  34.698  0.00  0.00    +0.000 A 
ATOM     23  C   UNL     1       7.448 -15.405  34.110  0.00  0.00    +0.000 A 
ATOM     24  C   UNL     1       7.676 -16.689  33.678  0.00  0.00    +0.000 A 
ENDBRANCH  18  19
ENDBRANCH  17  18
ENDBRANCH  16  17
ENDBRANCH  15  16
ENDBRANCH  13  15
ENDBRANCH   2  13
TORSDOF 9
ENDMDL
MODEL 5
REMARK VINA RESULT:    -4.300      2.780      6.684
REMARK INTER + INTRA:          -9.529
REMARK INTER:                  -6.426
REMARK INTRA:                  -3.103
REMARK UNBOUND:                -3.093
REMARK  Name = 
REMARK  10 active torsions:
REMARK  status: ('A' for Active; 'I' for Inactive)
REMARK    1  A    between atoms: C_1  and  O_2
REMARK    2  A    between atoms: O_2  and  C_3
REMARK    3  A    between atoms: C_5  and  C_6
REMARK    4  A    between atoms: C_7  and  C_8
REMARK    5  A    between atoms: C_8  and  C_10
REMARK    6  A    between atoms: C_10  and  C_11
REMARK    7  A    between atoms: C_11  and  C_12
REMARK    8  A    between atoms: C_12  and  C_13
REMARK    9  A    between atoms: C_13  and  C_14
REMARK   10  A    between atoms: C_22  and  O_23
REMARK                            x       y       z     vdW  Elec       q    Type
REMARK                         _______ _______ _______ _____ _____    ______ ____
ROOT
ATOM      1  C   UNL     1       5.451 -13.095  32.126  0.00  0.00    +0.000 C 
ATOM      2  C   UNL     1       6.413 -12.202  31.766  0.00  0.00    +0.000 C 
ENDROOT
BRANCH   1   5
ATOM      3  C   UNL     1       5.221 -16.489  33.772  0.00  0.00    +0.000 A 
ATOM      4  C   UNL     1       4.885 -15.347  33.084  0.00  0.00    +0.000 A 
ATOM      5  C   UNL     1       5.833 -14.365  32.868  0.00  0.00    +0.000 A 
ATOM      6  C   UNL     1       7.119 -14.533  33.321  0.00  0.00    +0.000 A 
ATOM      7  C   UNL     1       7.475 -15.686  33.986  0.00  0.00    +0.000 A 
ATOM      8  C   UNL     1       6.541 -16.700  34.222  0.00  0.00    +0.000 A 
BRANCH   3  10
ATOM      9  C   UNL     1       3.432 -17.785  32.876  0.00  0.00    +0.000 C 
ATOM     10  O   UNL     1       4.246 -17.404  33.976  0.00  0.00    +0.000 OA
ENDBRANCH   3  10
BRANCH   8  11
ATOM     11  O   UNL     1       6.908 -17.897  34.890  0.00  0.00    +0.000 OA
ATOM     12  H   UNL     1       7.057 -17.892  35.879  0.00  0.00    +0.000 HD
ENDBRANCH   8  11
ENDBRANCH   1   5
BRANCH   2  13
ATOM     13  C   UNL     1       6.031 -10.932  31.024  0.00  0.00    +0.000 C 
ATOM     14  O   UNL     1       5.321 -10.048  31.599  0.00  0.00    +0.000 OA
BRANCH  13  15
ATOM     15  C   UNL     1       6.498 -10.719  29.593  0.00  0.00    +0.000 C 
BRANCH  15  16
ATOM     16  C   UNL     1       5.739 -11.656  28.668  0.00  0.00    +0.000 C 
BRANCH  16  17
ATOM     17  C   UNL     1       6.653 -12.790  28.232  0.00  0.00    +0.000 C 
BRANCH  17  18
ATOM     18  C   UNL     1       5.899 -14.107  28.314  0.00  0.00    +0.000 C 
BRANCH  18  19
ATOM     19  C   UNL     1       6.643 -15.061  29.234  0.00  0.00    +0.000 A 
ATOM     20  C   UNL     1       7.954 -14.811  29.604  0.00  0.00    +0.000 A 
ATOM     21  C   UNL     1       8.609 -15.925  30.181  0.00  0.00    +0.000 A 
ATOM     22  C   UNL     1       7.993 -16.985  30.671  0.00  0.00    +0.000 A 
ATOM     23  C   UNL     1       6.679 -17.139  30.324  0.00  0.00    +0.000 A 
ATOM     24  C   UNL     1       6.007 -16.152  29.646  0.00  0.00    +0.000 A 
ENDBRANCH  18  19
ENDBRANCH  17  18
ENDBRANCH  16  17
ENDBRANCH  15  16
ENDBRANCH  13  15
ENDBRANCH   2  13
TORSDOF 9
ENDMDL
