MODEL 1
REMARK VINA RESULT:    -5.652      0.000      0.000
REMARK INTER + INTRA:          -6.701
REMARK INTER:                  -6.324
REMARK INTRA:                  -0.377
REMARK UNBOUND:                -0.388
REMARK  Name = 
REMARK  3 active torsions:
REMARK  status: ('A' for Active; 'I' for Inactive)
REMARK    1  A    between atoms: C_1  and  O_2
REMARK    2  A    between atoms: O_2  and  C_3
REMARK    3  A    between atoms: C_12  and  C_14
REMARK                            x       y       z     vdW  Elec       q    Type
REMARK                         _______ _______ _______ _____ _____    ______ ____
ROOT
ATOM      1  C   UNL     1       4.858 -10.044  30.873  0.00  0.00    +0.000 A 
ATOM      2  C   UNL     1       3.734  -9.330  31.230  0.00  0.00    +0.000 A 
ATOM      3  C   UNL     1       2.843  -9.857  32.155  0.00  0.00    +0.000 A 
ATOM      4  C   UNL     1       3.064 -11.093  32.732  0.00  0.00    +0.000 A 
ATOM      5  C   UNL     1       4.204 -11.786  32.360  0.00  0.00    +0.000 A 
ATOM      6  C   UNL     1       5.109 -11.299  31.439  0.00  0.00    +0.000 A 
ATOM      7  C   UNL     1       6.316 -12.083  31.070  0.00  0.00    +0.000 A 
ATOM      8  O   UNL     1       7.102 -11.614  30.243  0.00  0.00    +0.000 OA
ATOM      9  C   UNL     1       6.475 -13.350  31.756  0.00  0.00    +0.000 A 
ATOM     10  C   UNL     1       5.512 -13.727  32.717  0.00  0.00    +0.000 A 
ATOM     11  O   UNL     1       4.402 -13.008  32.980  0.00  0.00    +0.000 OA
ENDROOT
BRANCH  10  12
ATOM     12  C   UNL     1       5.740 -15.011  33.499  0.00  0.00    +0.000 A 
ATOM     13  C   UNL     1       7.032 -15.378  33.842  0.00  0.00    +0.000 A 
ATOM     14  C   UNL     1       7.146 -16.712  34.298  0.00  0.00    +0.000 A 
ATOM     15  C   UNL     1       6.135 -17.449  34.719  0.00  0.00    +0.000 A 
ATOM     16  C   UNL     1       4.882 -16.998  34.407  0.00  0.00    +0.000 A 
ATOM     17  C   UNL     1       4.698 -15.760  33.840  0.00  0.00    +0.000 A 
ENDBRANCH  10  12
BRANCH   1  19
ATOM     18  C   UNL     1       5.675  -8.133  29.557  0.00  0.00    +0.000 C 
ATOM     19  O   UNL     1       5.821  -9.474  29.998  0.00  0.00    +0.000 OA
ENDBRANCH   1  19
TORSDOF 2
ENDMDL
MODEL 2
REMARK VINA RESULT:    -5.575      1.719      6.703
REMARK INTER + INTRA:          -6.615
REMARK INTER:                  -6.266
REMARK INTRA:                  -0.349
REMARK UNBOUND:                -0.388
REMARK  Name = 
REMARK  3 active torsions:
REMARK  status: ('A' for Active; 'I' for Inactive)
REMARK    1  A    between atoms: C_1  and  O_2
REMARK    2  A    between atoms: O_2  and  C_3
REMARK    3  A    between atoms: C_12  and  C_14
REMARK                            x       y       z     vdW  Elec       q    Type
REMARK                         _______ _______ _______ _____ _____    ______ ____
ROOT
ATOM      1  C   UNL     1       5.252 -16.502  33.766  0.00  0.00    +0.000 A 
ATOM      2  C   UNL     1       6.418 -16.915  34.373  0.00  0.00    +0.000 A 
ATOM      3  C   UNL     1       7.567 -16.143  34.267  0.00  0.00    +0.000 A 
ATOM      4  C   UNL     1       7.564 -14.956  33.560  0.00  0.00    +0.000 A 
ATOM      5  C   UNL     1       6.377 -14.561  32.965  0.00  0.00    +0.000 A 
ATOM      6  C   UNL     1       5.217 -15.305  33.041  0.00  0.00    +0.000 A 
ATOM      7  C   UNL     1       3.970 -14.839  32.381  0.00  0.00    +0.000 A 
ATOM      8  O   UNL     1       2.954 -15.531  32.473  0.00  0.00    +0.000 OA
ATOM      9  C   UNL     1       4.061 -13.566  31.695  0.00  0.00    +0.000 A 
ATOM     10  C   UNL     1       5.287 -12.866  31.722  0.00  0.00    +0.000 A 
ATOM     11  O   UNL     1       6.410 -13.354  32.288  0.00  0.00    +0.000 OA
ENDROOT
BRANCH  10  12
ATOM     12  C   UNL     1       5.343 -11.489  31.081  0.00  0.00    +0.000 A 
ATOM     13  C   UNL     1       6.124 -11.297  29.952  0.00  0.00    +0.000 A 
ATOM     14  C   UNL     1       6.331  -9.936  29.624  0.00  0.00    +0.000 A 
ATOM     15  C   UNL     1       5.597  -8.936  30.077  0.00  0.00    +0.000 A 
ATOM     16  C   UNL     1       4.796  -9.208  31.151  0.00  0.00    +0.000 A 
ATOM     17  C   UNL     1       4.644 -10.493  31.613  0.00  0.00    +0.000 A 
ENDBRANCH  10  12
BRANCH   1  19
ATOM     18  C   UNL     1       4.099 -18.644  34.127  0.00  0.00    +0.000 C 
ATOM     19  O   UNL     1       4.050 -17.237  33.945  0.00  0.00    +0.000 OA
ENDBRANCH   1  19
TORSDOF 2
ENDMDL
MODEL 3
REMARK VINA RESULT:    -5.507      1.339      2.676
REMARK INTER + INTRA:          -6.539
REMARK INTER:                  -6.145
REMARK INTRA:                  -0.394
REMARK UNBOUND:                -0.388
REMARK  Name = 
REMARK  3 active torsions:
REMARK  status: ('A' for Active; 'I' for Inactive)
REMARK    1  A    between atoms: C_1  and  O_2
REMARK    2  A    between atoms: O_2  and  C_3
REMARK    3  A    between atoms: C_12  and  C_14
REMARK                            x       y       z     vdW  Elec       q    Type
REMARK                         _______ _______ _______ _____ _____    ______ ____
ROOT
ATOM      1  C   UNL     1       4.251 -10.076  30.720  0.00  0.00    +0.000 A 
ATOM      2  C   UNL     1       5.162  -9.503  29.858  0.00  0.00    +0.000 A 
ATOM      3  C   UNL     1       6.421 -10.068  29.702  0.00  0.00    +0.000 A 
ATOM      4  C   UNL     1       6.781 -11.204  30.401  0.00  0.00    +0.000 A 
ATOM      5  C   UNL     1       5.846 -11.763  31.256  0.00  0.00    +0.000 A 
ATOM      6  C   UNL     1       4.588 -11.226  31.443  0.00  0.00    +0.000 A 
ATOM      7  C   UNL     1       3.621 -11.860  32.375  0.00  0.00    +0.000 A 
ATOM      8  O   UNL     1       2.506 -11.352  32.514  0.00  0.00    +0.000 OA
ATOM      9  C   UNL     1       4.082 -13.067  33.032  0.00  0.00    +0.000 A 
ATOM     10  C   UNL     1       5.372 -13.554  32.729  0.00  0.00    +0.000 A 
ATOM     11  O   UNL     1       6.237 -12.914  31.917  0.00  0.00    +0.000 OA
ENDROOT
BRANCH  10  12
ATOM     12  C   UNL     1       5.808 -14.872  33.351  0.00  0.00    +0.000 A 
ATOM     13  C   UNL     1       4.846 -15.777  33.770  0.00  0.00    +0.000 A 
ATOM     14  C   UNL     1       5.353 -16.815  34.586  0.00  0.00    +0.000 A 
ATOM     15  C   UNL     1       6.629 -17.146  34.670  0.00  0.00    +0.000 A 
ATOM     16  C   UNL     1       7.526 -16.240  34.177  0.00  0.00    +0.000 A 
ATOM     17  C   UNL     1       7.103 -15.134  33.482  0.00  0.00    +0.000 A 
ENDBRANCH  10  12
BRANCH   1  19
ATOM     18  C   UNL     1       2.722  -8.157  30.892  0.00  0.00    +0.000 C 
ATOM     19  O   UNL     1       2.932  -9.559  30.816  0.00  0.00    +0.000 OA
ENDBRANCH   1  19
TORSDOF 2
ENDMDL
MODEL 4
REMARK VINA RESULT:    -5.121      5.504      9.183
REMARK INTER + INTRA:          -6.108
REMARK INTER:                  -5.720
REMARK INTRA:                  -0.388
REMARK UNBOUND:                -0.388
REMARK  Name = 
REMARK  3 active torsions:
REMARK  status: ('A' for Active; 'I' for Inactive)
REMARK    1  A    between atoms: C_1  and  O_2
REMARK    2  A    between atoms: O_2  and  C_3
REMARK    3  A    between atoms: C_12  and  C_14
REMARK                            x       y       z     vdW  Elec       q    Type
REMARK                         _______ _______ _______ _____ _____    ______ ____
ROOT
ATOM      1  C   UNL     1       2.458 -22.252  33.158  0.00  0.00    +0.000 A 
ATOM      2  C   UNL     1       1.372 -22.472  33.978  0.00  0.00    +0.000 A 
ATOM      3  C   UNL     1       1.112 -21.608  35.034  0.00  0.00    +0.000 A 
ATOM      4  C   UNL     1       1.928 -20.520  35.279  0.00  0.00    +0.000 A 
ATOM      5  C   UNL     1       3.008 -20.318  34.437  0.00  0.00    +0.000 A 
ATOM      6  C   UNL     1       3.304 -21.159  33.383  0.00  0.00    +0.000 A 
ATOM      7  C   UNL     1       4.478 -20.902  32.510  0.00  0.00    +0.000 A 
ATOM      8  O   UNL     1       4.708 -21.675  31.578  0.00  0.00    +0.000 OA
ATOM      9  C   UNL     1       5.249 -19.717  32.829  0.00  0.00    +0.000 A 
ATOM     10  C   UNL     1       4.827 -18.900  33.900  0.00  0.00    +0.000 A 
ATOM     11  O   UNL     1       3.785 -19.204  34.701  0.00  0.00    +0.000 OA
ENDROOT
BRANCH  10  12
ATOM     12  C   UNL     1       5.587 -17.610  34.165  0.00  0.00    +0.000 A 
ATOM     13  C   UNL     1       4.894 -16.489  34.591  0.00  0.00    +0.000 A 
ATOM     14  C   UNL     1       5.643 -15.291  34.521  0.00  0.00    +0.000 A 
ATOM     15  C   UNL     1       6.959 -15.235  34.421  0.00  0.00    +0.000 A 
ATOM     16  C   UNL     1       7.591 -16.394  34.063  0.00  0.00    +0.000 A 
ATOM     17  C   UNL     1       6.902 -17.579  33.983  0.00  0.00    +0.000 A 
ENDBRANCH  10  12
BRANCH   1  19
ATOM     18  C   UNL     1       2.619 -24.489  32.149  0.00  0.00    +0.000 C 
ATOM     19  O   UNL     1       2.679 -23.076  32.023  0.00  0.00    +0.000 OA
ENDBRANCH   1  19
TORSDOF 2
ENDMDL
MODEL 5
REMARK VINA RESULT:    -5.089      2.311      6.582
REMARK INTER + INTRA:          -6.072
REMARK INTER:                  -5.689
REMARK INTRA:                  -0.383
REMARK UNBOUND:                -0.388
REMARK  Name = 
REMARK  3 active torsions:
REMARK  status: ('A' for Active; 'I' for Inactive)
REMARK    1  A    between atoms: C_1  and  O_2
REMARK    2  A    between atoms: O_2  and  C_3
REMARK    3  A    between atoms: C_12  and  C_14
REMARK                            x       y       z     vdW  Elec       q    Type
REMARK                         _______ _______ _______ _____ _____    ______ ____
ROOT
ATOM      1  C   UNL     1       7.495 -16.287  31.513  0.00  0.00    +0.000 A 
ATOM      2  C   UNL     1       7.349 -16.753  32.801  0.00  0.00    +0.000 A 
ATOM      3  C   UNL     1       6.901 -15.900  33.802  0.00  0.00    +0.000 A 
ATOM      4  C   UNL     1       6.594 -14.581  33.527  0.00  0.00    +0.000 A 
ATOM      5  C   UNL     1       6.744 -14.140  32.223  0.00  0.00    +0.000 A 
ATOM      6  C   UNL     1       7.194 -14.955  31.203  0.00  0.00    +0.000 A 
ATOM      7  C   UNL     1       7.342 -14.433  29.820  0.00  0.00    +0.000 A 
ATOM      8  O   UNL     1       7.746 -15.192  28.937  0.00  0.00    +0.000 OA
ATOM      9  C   UNL     1       6.961 -13.048  29.629  0.00  0.00    +0.000 A 
ATOM     10  C   UNL     1       6.467 -12.320  30.733  0.00  0.00    +0.000 A 
ATOM     11  O   UNL     1       6.402 -12.820  31.985  0.00  0.00    +0.000 OA
ENDROOT
BRANCH  10  12
ATOM     12  C   UNL     1       5.982 -10.898  30.500  0.00  0.00    +0.000 A 
ATOM     13  C   UNL     1       6.311 -10.253  29.319  0.00  0.00    +0.000 A 
ATOM     14  C   UNL     1       6.063  -8.860  29.338  0.00  0.00    +0.000 A 
ATOM     15  C   UNL     1       5.274  -8.253  30.205  0.00  0.00    +0.000 A 
ATOM     16  C   UNL     1       4.929  -8.968  31.318  0.00  0.00    +0.000 A 
ATOM     17  C   UNL     1       5.250 -10.298  31.431  0.00  0.00    +0.000 A 
ENDBRANCH  10  12
BRANCH   1  19
ATOM     18  C   UNL     1       8.281 -18.496  30.771  0.00  0.00    +0.000 C 
ATOM     19  O   UNL     1       7.864 -17.173  30.466  0.00  0.00    +0.000 OA
ENDBRANCH   1  19
TORSDOF 2
ENDMDL
