MODEL 1
REMARK VINA RESULT:    -5.359      0.000      0.000
REMARK INTER + INTRA:          15.309
REMARK INTER:                  -5.946
REMARK INTRA:                  21.255
REMARK UNBOUND:                21.294
REMARK  Name = 
REMARK  3 active torsions:
REMARK  status: ('A' for Active; 'I' for Inactive)
REMARK    1  A    between atoms: C_1  and  O_2
REMARK    2  A    between atoms: O_2  and  C_3
REMARK    3  A    between atoms: C_6  and  C_7
REMARK                            x       y       z     vdW  Elec       q    Type
REMARK                         _______ _______ _______ _____ _____    ______ ____
ROOT
ATOM      1  C   UNL     1       5.351 -19.915  32.947  0.00  0.00    +0.000 A 
ATOM      2  C   UNL     1       6.614 -20.562  32.701  0.00  0.00    +0.000 A 
ATOM      3  C   UNL     1       7.828 -19.788  32.684  0.00  0.00    +0.000 A 
ATOM      4  O   UNL     1       8.943 -20.358  32.466  0.00  0.00    +0.000 OA
ATOM      5  C   UNL     1       7.777 -18.288  32.923  0.00  0.00    +0.000 A 
ATOM      6  C   UNL     1       8.364 -17.382  32.056  0.00  0.00    +0.000 A 
ATOM      7  C   UNL     1       8.324 -16.043  32.512  0.00  0.00    +0.000 A 
ATOM      8  C   UNL     1       7.516 -15.598  33.459  0.00  0.00    +0.000 A 
ATOM      9  C   UNL     1       6.913 -16.545  34.238  0.00  0.00    +0.000 A 
ATOM     10  C   UNL     1       7.016 -17.882  33.933  0.00  0.00    +0.000 A 
ATOM     11  O   UNL     1       4.217 -20.638  32.963  0.00  0.00    +0.000 OA
ENDROOT
BRANCH   1  15
ATOM     12  C   UNL     1       4.968 -15.716  33.624  0.00  0.00    +0.000 A 
ATOM     13  C   UNL     1       4.928 -16.570  34.713  0.00  0.00    +0.000 A 
ATOM     14  C   UNL     1       5.282 -17.906  34.406  0.00  0.00    +0.000 A 
ATOM     15  C   UNL     1       5.300 -18.415  33.188  0.00  0.00    +0.000 A 
ATOM     16  C   UNL     1       5.269 -17.520  32.154  0.00  0.00    +0.000 A 
ATOM     17  C   UNL     1       5.058 -16.182  32.384  0.00  0.00    +0.000 A 
BRANCH  12  19
ATOM     18  C   UNL     1       4.167 -13.434  33.176  0.00  0.00    +0.000 C 
ATOM     19  O   UNL     1       5.065 -14.314  33.834  0.00  0.00    +0.000 OA
ENDBRANCH  12  19
ENDBRANCH   1  15
TORSDOF 2
ENDMDL
MODEL 2
REMARK VINA RESULT:    -5.340      1.788      5.376
REMARK INTER + INTRA:          15.329
REMARK INTER:                  -5.945
REMARK INTRA:                  21.274
REMARK UNBOUND:                21.294
REMARK  Name = 
REMARK  3 active torsions:
REMARK  status: ('A' for Active; 'I' for Inactive)
REMARK    1  A    between atoms: C_1  and  O_2
REMARK    2  A    between atoms: O_2  and  C_3
REMARK    3  A    between atoms: C_6  and  C_7
REMARK                            x       y       z     vdW  Elec       q    Type
REMARK                         _______ _______ _______ _____ _____    ______ ____
ROOT
ATOM      1  C   UNL     1       5.907 -13.296  32.190  0.00  0.00    +0.000 A 
ATOM      2  C   UNL     1       4.520 -12.928  32.317  0.00  0.00    +0.000 A 
ATOM      3  C   UNL     1       3.572 -13.870  32.853  0.00  0.00    +0.000 A 
ATOM      4  O   UNL     1       2.348 -13.546  32.964  0.00  0.00    +0.000 OA
ATOM      5  C   UNL     1       4.034 -15.253  33.282  0.00  0.00    +0.000 A 
ATOM      6  C   UNL     1       3.420 -16.409  32.830  0.00  0.00    +0.000 A 
ATOM      7  C   UNL     1       3.905 -17.591  33.438  0.00  0.00    +0.000 A 
ATOM      8  C   UNL     1       5.051 -17.683  34.089  0.00  0.00    +0.000 A 
ATOM      9  C   UNL     1       5.642 -16.504  34.448  0.00  0.00    +0.000 A 
ATOM     10  C   UNL     1       5.149 -15.301  34.001  0.00  0.00    +0.000 A 
ATOM     11  O   UNL     1       6.794 -12.417  31.690  0.00  0.00    +0.000 OA
ENDROOT
BRANCH   1  15
ATOM     12  C   UNL     1       7.421 -17.130  33.309  0.00  0.00    +0.000 A 
ATOM     13  C   UNL     1       7.628 -16.059  34.162  0.00  0.00    +0.000 A 
ATOM     14  C   UNL     1       6.904 -14.896  33.808  0.00  0.00    +0.000 A 
ATOM     15  C   UNL     1       6.370 -14.679  32.620  0.00  0.00    +0.000 A 
ATOM     16  C   UNL     1       6.255 -15.765  31.797  0.00  0.00    +0.000 A 
ATOM     17  C   UNL     1       6.823 -16.970  32.134  0.00  0.00    +0.000 A 
BRANCH  12  19
ATOM     18  C   UNL     1       8.189 -19.416  32.828  0.00  0.00    +0.000 C 
ATOM     19  O   UNL     1       7.715 -18.448  33.751  0.00  0.00    +0.000 OA
ENDBRANCH  12  19
ENDBRANCH   1  15
TORSDOF 2
ENDMDL
MODEL 3
REMARK VINA RESULT:    -4.955      2.479      5.031
REMARK INTER + INTRA:          15.759
REMARK INTER:                  -5.524
REMARK INTRA:                  21.283
REMARK UNBOUND:                21.294
REMARK  Name = 
REMARK  3 active torsions:
REMARK  status: ('A' for Active; 'I' for Inactive)
REMARK    1  A    between atoms: C_1  and  O_2
REMARK    2  A    between atoms: O_2  and  C_3
REMARK    3  A    between atoms: C_6  and  C_7
REMARK                            x       y       z     vdW  Elec       q    Type
REMARK                         _______ _______ _______ _____ _____    ______ ____
ROOT
ATOM      1  C   UNL     1       7.412 -14.854  30.125  0.00  0.00    +0.000 A 
ATOM      2  C   UNL     1       7.184 -13.438  29.983  0.00  0.00    +0.000 A 
ATOM      3  C   UNL     1       6.448 -12.723  30.993  0.00  0.00    +0.000 A 
ATOM      4  O   UNL     1       6.246 -11.474  30.867  0.00  0.00    +0.000 OA
ATOM      5  C   UNL     1       5.910 -13.461  32.207  0.00  0.00    +0.000 A 
ATOM      6  C   UNL     1       4.584 -13.375  32.595  0.00  0.00    +0.000 A 
ATOM      7  C   UNL     1       4.301 -14.025  33.820  0.00  0.00    +0.000 A 
ATOM      8  C   UNL     1       5.079 -14.932  34.384  0.00  0.00    +0.000 A 
ATOM      9  C   UNL     1       6.358 -15.014  33.910  0.00  0.00    +0.000 A 
ATOM     10  C   UNL     1       6.747 -14.307  32.796  0.00  0.00    +0.000 A 
ATOM     11  O   UNL     1       8.099 -15.523  29.182  0.00  0.00    +0.000 OA
ENDROOT
BRANCH   1  15
ATOM     12  C   UNL     1       5.974 -17.131  33.439  0.00  0.00    +0.000 A 
ATOM     13  C   UNL     1       7.309 -16.764  33.415  0.00  0.00    +0.000 A 
ATOM     14  C   UNL     1       7.629 -15.835  32.396  0.00  0.00    +0.000 A 
ATOM     15  C   UNL     1       6.875 -15.592  31.341  0.00  0.00    +0.000 A 
ATOM     16  C   UNL     1       5.584 -16.041  31.399  0.00  0.00    +0.000 A 
ATOM     17  C   UNL     1       5.162 -16.844  32.429  0.00  0.00    +0.000 A 
BRANCH  12  19
ATOM     18  C   UNL     1       4.293 -18.549  34.540  0.00  0.00    +0.000 C 
ATOM     19  O   UNL     1       5.422 -17.693  34.622  0.00  0.00    +0.000 OA
ENDBRANCH  12  19
ENDBRANCH   1  15
TORSDOF 2
ENDMDL
MODEL 4
REMARK VINA RESULT:    -4.945      1.587      3.302
REMARK INTER + INTRA:          15.771
REMARK INTER:                  -5.523
REMARK INTRA:                  21.294
REMARK UNBOUND:                21.294
REMARK  Name = 
REMARK  3 active torsions:
REMARK  status: ('A' for Active; 'I' for Inactive)
REMARK    1  A    between atoms: C_1  and  O_2
REMARK    2  A    between atoms: O_2  and  C_3
REMARK    3  A    between atoms: C_6  and  C_7
REMARK                            x       y       z     vdW  Elec       q    Type
REMARK                         _______ _______ _______ _____ _____    ______ ____
ROOT
ATOM      1  C   UNL     1       8.684 -16.448  31.149  0.00  0.00    +0.000 A 
ATOM      2  C   UNL     1       8.992 -17.827  31.430  0.00  0.00    +0.000 A 
ATOM      3  C   UNL     1       8.187 -18.566  32.368  0.00  0.00    +0.000 A 
ATOM      4  O   UNL     1       8.459 -19.783  32.617  0.00  0.00    +0.000 OA
ATOM      5  C   UNL     1       7.015 -17.892  33.062  0.00  0.00    +0.000 A 
ATOM      6  C   UNL     1       6.862 -17.913  34.438  0.00  0.00    +0.000 A 
ATOM      7  C   UNL     1       5.646 -17.345  34.888  0.00  0.00    +0.000 A 
ATOM      8  C   UNL     1       4.880 -16.546  34.166  0.00  0.00    +0.000 A 
ATOM      9  C   UNL     1       5.127 -16.519  32.822  0.00  0.00    +0.000 A 
ATOM     10  C   UNL     1       6.221 -17.159  32.290  0.00  0.00    +0.000 A 
ATOM     11  O   UNL     1       9.435 -15.756  30.272  0.00  0.00    +0.000 OA
ENDROOT
BRANCH   1  15
ATOM     12  C   UNL     1       5.461 -14.347  33.002  0.00  0.00    +0.000 A 
ATOM     13  C   UNL     1       5.308 -14.780  31.695  0.00  0.00    +0.000 A 
ATOM     14  C   UNL     1       6.335 -15.647  31.255  0.00  0.00    +0.000 A 
ATOM     15  C   UNL     1       7.511 -15.774  31.842  0.00  0.00    +0.000 A 
ATOM     16  C   UNL     1       7.618 -15.265  33.107  0.00  0.00    +0.000 A 
ATOM     17  C   UNL     1       6.604 -14.517  33.655  0.00  0.00    +0.000 A 
BRANCH  12  19
ATOM     18  C   UNL     1       3.546 -12.810  33.149  0.00  0.00    +0.000 C 
ATOM     19  O   UNL     1       4.337 -13.845  33.712  0.00  0.00    +0.000 OA
ENDBRANCH  12  19
ENDBRANCH   1  15
TORSDOF 2
ENDMDL
