MODEL 1
REMARK VINA RESULT:    -4.649      0.000      0.000
REMARK INTER + INTRA:          -6.323
REMARK INTER:                  -5.683
REMARK INTRA:                  -0.640
REMARK UNBOUND:                -0.586
REMARK  Name = 
REMARK  6 active torsions:
REMARK  status: ('A' for Active; 'I' for Inactive)
REMARK    1  A    between atoms: C_1  and  O_2
REMARK    2  A    between atoms: O_2  and  C_3
REMARK    3  A    between atoms: C_6  and  C_7
REMARK    4  A    between atoms: C_8  and  C_9
REMARK    5  A    between atoms: C_11  and  O_12
REMARK    6  A    between atoms: C_14  and  O_15
REMARK                            x       y       z     vdW  Elec       q    Type
REMARK                         _______ _______ _______ _____ _____    ______ ____
ROOT
ATOM      1  C   UNL     1       7.575 -16.171  34.426  0.00  0.00    +0.000 C 
ATOM      2  C   UNL     1       7.378 -14.979  33.802  0.00  0.00    +0.000 C 
ENDROOT
BRANCH   1   6
ATOM      3  C   UNL     1       4.663 -19.216  33.728  0.00  0.00    +0.000 A 
ATOM      4  C   UNL     1       5.795 -19.185  32.932  0.00  0.00    +0.000 A 
ATOM      5  C   UNL     1       6.789 -18.285  33.383  0.00  0.00    +0.000 A 
ATOM      6  C   UNL     1       6.575 -17.301  34.239  0.00  0.00    +0.000 A 
ATOM      7  C   UNL     1       5.406 -17.354  34.945  0.00  0.00    +0.000 A 
ATOM      8  C   UNL     1       4.443 -18.286  34.650  0.00  0.00    +0.000 A 
BRANCH   3  10
ATOM      9  C   UNL     1       2.797 -20.561  34.601  0.00  0.00    +0.000 C 
ATOM     10  O   UNL     1       3.709 -20.255  33.556  0.00  0.00    +0.000 OA
ENDBRANCH   3  10
ENDBRANCH   1   6
BRANCH   2  11
ATOM     11  C   UNL     1       6.159 -14.774  32.917  0.00  0.00    +0.000 A 
ATOM     12  C   UNL     1       4.991 -14.262  33.455  0.00  0.00    +0.000 A 
ATOM     13  C   UNL     1       3.866 -14.384  32.606  0.00  0.00    +0.000 A 
ATOM     14  C   UNL     1       3.931 -14.613  31.306  0.00  0.00    +0.000 A 
ATOM     15  C   UNL     1       5.132 -15.053  30.825  0.00  0.00    +0.000 A 
ATOM     16  C   UNL     1       6.246 -15.085  31.629  0.00  0.00    +0.000 A 
BRANCH  13  17
ATOM     17  O   UNL     1       2.579 -14.252  33.190  0.00  0.00    +0.000 OA
ATOM     18  H   UNL     1       2.491 -13.994  34.152  0.00  0.00    +0.000 HD
ENDBRANCH  13  17
BRANCH  15  19
ATOM     19  O   UNL     1       5.231 -15.481  29.475  0.00  0.00    +0.000 OA
ATOM     20  H   UNL     1       4.953 -14.869  28.734  0.00  0.00    +0.000 HD
ENDBRANCH  15  19
ENDBRANCH   2  11
TORSDOF 5
ENDMDL
MODEL 2
REMARK VINA RESULT:    -4.569      1.604      4.809
REMARK INTER + INTRA:          -6.223
REMARK INTER:                  -5.718
REMARK INTRA:                  -0.505
REMARK UNBOUND:                -0.586
REMARK  Name = 
REMARK  6 active torsions:
REMARK  status: ('A' for Active; 'I' for Inactive)
REMARK    1  A    between atoms: C_1  and  O_2
REMARK    2  A    between atoms: O_2  and  C_3
REMARK    3  A    between atoms: C_6  and  C_7
REMARK    4  A    between atoms: C_8  and  C_9
REMARK    5  A    between atoms: C_11  and  O_12
REMARK    6  A    between atoms: C_14  and  O_15
REMARK                            x       y       z     vdW  Elec       q    Type
REMARK                         _______ _______ _______ _____ _____    ______ ____
ROOT
ATOM      1  C   UNL     1       7.397 -15.951  34.420  0.00  0.00    +0.000 C 
ATOM      2  C   UNL     1       7.150 -17.286  34.330  0.00  0.00    +0.000 C 
ENDROOT
BRANCH   1   6
ATOM      3  C   UNL     1       4.424 -13.327  32.833  0.00  0.00    +0.000 A 
ATOM      4  C   UNL     1       4.161 -13.989  34.020  0.00  0.00    +0.000 A 
ATOM      5  C   UNL     1       5.283 -14.655  34.568  0.00  0.00    +0.000 A 
ATOM      6  C   UNL     1       6.379 -14.952  33.892  0.00  0.00    +0.000 A 
ATOM      7  C   UNL     1       6.548 -14.315  32.695  0.00  0.00    +0.000 A 
ATOM      8  C   UNL     1       5.547 -13.544  32.158  0.00  0.00    +0.000 A 
BRANCH   3  10
ATOM      9  C   UNL     1       2.826 -11.491  33.188  0.00  0.00    +0.000 C 
ATOM     10  O   UNL     1       3.478 -12.403  32.316  0.00  0.00    +0.000 OA
ENDBRANCH   3  10
ENDBRANCH   1   6
BRANCH   2  11
ATOM     11  C   UNL     1       5.856 -17.780  33.703  0.00  0.00    +0.000 A 
ATOM     12  C   UNL     1       4.787 -18.132  34.509  0.00  0.00    +0.000 A 
ATOM     13  C   UNL     1       3.762 -18.831  33.828  0.00  0.00    +0.000 A 
ATOM     14  C   UNL     1       3.614 -18.850  32.515  0.00  0.00    +0.000 A 
ATOM     15  C   UNL     1       4.682 -18.425  31.776  0.00  0.00    +0.000 A 
ATOM     16  C   UNL     1       5.776 -17.852  32.380  0.00  0.00    +0.000 A 
BRANCH  13  17
ATOM     17  O   UNL     1       2.828 -19.561  34.609  0.00  0.00    +0.000 OA
ATOM     18  H   UNL     1       3.038 -19.784  35.560  0.00  0.00    +0.000 HD
ENDBRANCH  13  17
BRANCH  15  19
ATOM     19  O   UNL     1       4.662 -18.577  30.364  0.00  0.00    +0.000 OA
ATOM     20  H   UNL     1       5.088 -17.886  29.781  0.00  0.00    +0.000 HD
ENDBRANCH  15  19
ENDBRANCH   2  11
TORSDOF 5
ENDMDL
MODEL 3
REMARK VINA RESULT:    -4.513      2.180      4.905
REMARK INTER + INTRA:          -6.154
REMARK INTER:                  -5.579
REMARK INTRA:                  -0.576
REMARK UNBOUND:                -0.586
REMARK  Name = 
REMARK  6 active torsions:
REMARK  status: ('A' for Active; 'I' for Inactive)
REMARK    1  A    between atoms: C_1  and  O_2
REMARK    2  A    between atoms: O_2  and  C_3
REMARK    3  A    between atoms: C_6  and  C_7
REMARK    4  A    between atoms: C_8  and  C_9
REMARK    5  A    between atoms: C_11  and  O_12
REMARK    6  A    between atoms: C_14  and  O_15
REMARK                            x       y       z     vdW  Elec       q    Type
REMARK                         _______ _______ _______ _____ _____    ______ ____
ROOT
ATOM      1  C   UNL     1       6.345 -14.896  34.488  0.00  0.00    +0.000 C 
ATOM      2  C   UNL     1       5.275 -15.656  34.845  0.00  0.00    +0.000 C 
ENDROOT
BRANCH   1   6
ATOM      3  C   UNL     1       8.148 -15.760  30.714  0.00  0.00    +0.000 A 
ATOM      4  C   UNL     1       7.057 -14.908  30.750  0.00  0.00    +0.000 A 
ATOM      5  C   UNL     1       6.677 -14.517  32.055  0.00  0.00    +0.000 A 
ATOM      6  C   UNL     1       7.043 -15.142  33.161  0.00  0.00    +0.000 A 
ATOM      7  C   UNL     1       8.083 -16.022  33.045  0.00  0.00    +0.000 A 
ATOM      8  C   UNL     1       8.595 -16.354  31.815  0.00  0.00    +0.000 A 
BRANCH   3  10
ATOM      9  C   UNL     1       9.498 -14.970  28.815  0.00  0.00    +0.000 C 
ATOM     10  O   UNL     1       8.804 -16.016  29.480  0.00  0.00    +0.000 OA
ENDBRANCH   3  10
ENDBRANCH   1   6
BRANCH   2  11
ATOM     11  C   UNL     1       4.777 -16.753  33.917  0.00  0.00    +0.000 A 
ATOM     12  C   UNL     1       3.779 -16.481  32.998  0.00  0.00    +0.000 A 
ATOM     13  C   UNL     1       3.220 -17.636  32.401  0.00  0.00    +0.000 A 
ATOM     14  C   UNL     1       3.786 -18.829  32.404  0.00  0.00    +0.000 A 
ATOM     15  C   UNL     1       4.812 -19.014  33.288  0.00  0.00    +0.000 A 
ATOM     16  C   UNL     1       5.326 -17.959  34.003  0.00  0.00    +0.000 A 
BRANCH  13  17
ATOM     17  O   UNL     1       1.962 -17.503  31.754  0.00  0.00    +0.000 OA
ATOM     18  H   UNL     1       1.320 -16.796  32.051  0.00  0.00    +0.000 HD
ENDBRANCH  13  17
BRANCH  15  19
ATOM     19  O   UNL     1       5.355 -20.314  33.469  0.00  0.00    +0.000 OA
ATOM     20  H   UNL     1       4.748 -21.107  33.512  0.00  0.00    +0.000 HD
ENDBRANCH  15  19
ENDBRANCH   2  11
TORSDOF 5
ENDMDL
MODEL 4
REMARK VINA RESULT:    -4.502      2.279      4.063
REMARK INTER + INTRA:          -6.141
REMARK INTER:                  -5.555
REMARK INTRA:                  -0.586
REMARK UNBOUND:                -0.586
REMARK  Name = 
REMARK  6 active torsions:
REMARK  status: ('A' for Active; 'I' for Inactive)
REMARK    1  A    between atoms: C_1  and  O_2
REMARK    2  A    between atoms: O_2  and  C_3
REMARK    3  A    between atoms: C_6  and  C_7
REMARK    4  A    between atoms: C_8  and  C_9
REMARK    5  A    between atoms: C_11  and  O_12
REMARK    6  A    between atoms: C_14  and  O_15
REMARK                            x       y       z     vdW  Elec       q    Type
REMARK                         _______ _______ _______ _____ _____    ______ ____
ROOT
ATOM      1  C   UNL     1       7.576 -15.295  33.934  0.00  0.00    +0.000 C 
ATOM      2  C   UNL     1       6.378 -15.295  34.578  0.00  0.00    +0.000 C 
ENDROOT
BRANCH   1   6
ATOM      3  C   UNL     1       7.993 -17.962  30.625  0.00  0.00    +0.000 A 
ATOM      4  C   UNL     1       7.706 -16.631  30.374  0.00  0.00    +0.000 A 
ATOM      5  C   UNL     1       7.806 -15.798  31.512  0.00  0.00    +0.000 A 
ATOM      6  C   UNL     1       7.809 -16.232  32.760  0.00  0.00    +0.000 A 
ATOM      7  C   UNL     1       8.031 -17.569  32.938  0.00  0.00    +0.000 A 
ATOM      8  C   UNL     1       8.076 -18.427  31.866  0.00  0.00    +0.000 A 
BRANCH   3  10
ATOM      9  C   UNL     1       8.952 -20.045  29.732  0.00  0.00    +0.000 C 
ATOM     10  O   UNL     1       8.197 -18.857  29.540  0.00  0.00    +0.000 OA
ENDBRANCH   3  10
ENDBRANCH   1   6
BRANCH   2  11
ATOM     11  C   UNL     1       5.271 -16.233  34.124  0.00  0.00    +0.000 A 
ATOM     12  C   UNL     1       5.088 -17.447  34.762  0.00  0.00    +0.000 A 
ATOM     13  C   UNL     1       4.223 -18.332  34.074  0.00  0.00    +0.000 A 
ATOM     14  C   UNL     1       3.376 -17.966  33.129  0.00  0.00    +0.000 A 
ATOM     15  C   UNL     1       3.569 -16.727  32.585  0.00  0.00    +0.000 A 
ATOM     16  C   UNL     1       4.487 -15.855  33.121  0.00  0.00    +0.000 A 
BRANCH  13  17
ATOM     17  O   UNL     1       4.270 -19.707  34.424  0.00  0.00    +0.000 OA
ATOM     18  H   UNL     1       4.509 -20.390  33.735  0.00  0.00    +0.000 HD
ENDBRANCH  13  17
BRANCH  15  19
ATOM     19  O   UNL     1       2.809 -16.333  31.452  0.00  0.00    +0.000 OA
ATOM     20  H   UNL     1       2.309 -15.467  31.461  0.00  0.00    +0.000 HD
ENDBRANCH  15  19
ENDBRANCH   2  11
TORSDOF 5
ENDMDL
MODEL 5
REMARK VINA RESULT:    -4.499      2.270      4.821
REMARK INTER + INTRA:          -6.137
REMARK INTER:                  -5.452
REMARK INTRA:                  -0.685
REMARK UNBOUND:                -0.586
REMARK  Name = 
REMARK  6 active torsions:
REMARK  status: ('A' for Active; 'I' for Inactive)
REMARK    1  A    between atoms: C_1  and  O_2
REMARK    2  A    between atoms: O_2  and  C_3
REMARK    3  A    between atoms: C_6  and  C_7
REMARK    4  A    between atoms: C_8  and  C_9
REMARK    5  A    between atoms: C_11  and  O_12
REMARK    6  A    between atoms: C_14  and  O_15
REMARK                            x       y       z     vdW  Elec       q    Type
REMARK                         _______ _______ _______ _____ _____    ______ ____
ROOT
ATOM      1  C   UNL     1       6.015 -14.762  34.446  0.00  0.00    +0.000 C 
ATOM      2  C   UNL     1       4.931 -15.518  34.768  0.00  0.00    +0.000 C 
ENDROOT
BRANCH   1   6
ATOM      3  C   UNL     1       8.315 -16.028  31.077  0.00  0.00    +0.000 A 
ATOM      4  C   UNL     1       7.224 -15.203  30.864  0.00  0.00    +0.000 A 
ATOM      5  C   UNL     1       6.669 -14.668  32.051  0.00  0.00    +0.000 A 
ATOM      6  C   UNL     1       6.888 -15.149  33.262  0.00  0.00    +0.000 A 
ATOM      7  C   UNL     1       7.939 -16.013  33.393  0.00  0.00    +0.000 A 
ATOM      8  C   UNL     1       8.613 -16.477  32.290  0.00  0.00    +0.000 A 
BRANCH   3  10
ATOM      9  C   UNL     1      10.546 -16.371  30.099  0.00  0.00    +0.000 C 
ATOM     10  O   UNL     1       9.132 -16.414  29.980  0.00  0.00    +0.000 OA
ENDBRANCH   3  10
ENDBRANCH   1   6
BRANCH   2  11
ATOM     11  C   UNL     1       4.591 -16.750  33.944  0.00  0.00    +0.000 A 
ATOM     12  C   UNL     1       5.111 -17.983  34.296  0.00  0.00    +0.000 A 
ATOM     13  C   UNL     1       4.950 -18.978  33.303  0.00  0.00    +0.000 A 
ATOM     14  C   UNL     1       4.094 -18.902  32.299  0.00  0.00    +0.000 A 
ATOM     15  C   UNL     1       3.562 -17.669  32.045  0.00  0.00    +0.000 A 
ATOM     16  C   UNL     1       3.782 -16.615  32.900  0.00  0.00    +0.000 A 
BRANCH  13  17
ATOM     17  O   UNL     1       5.764 -20.138  33.390  0.00  0.00    +0.000 OA
ATOM     18  H   UNL     1       6.296 -20.436  32.598  0.00  0.00    +0.000 HD
ENDBRANCH  13  17
BRANCH  15  19
ATOM     19  O   UNL     1       2.770 -17.474  30.883  0.00  0.00    +0.000 OA
ATOM     20  H   UNL     1       3.091 -16.870  30.154  0.00  0.00    +0.000 HD
ENDBRANCH  15  19
ENDBRANCH   2  11
TORSDOF 5
ENDMDL
