MODEL 1
REMARK VINA RESULT:    -4.799      0.000      0.000
REMARK INTER + INTRA:          -9.728
REMARK INTER:                  -7.127
REMARK INTRA:                  -2.601
REMARK UNBOUND:                -2.405
REMARK  Name = 
REMARK  10 active torsions:
REMARK  status: ('A' for Active; 'I' for Inactive)
REMARK    1  A    between atoms: C_2  and  C_3
REMARK    2  A    between atoms: C_2  and  C_14
REMARK    3  A    between atoms: C_3  and  C_4
REMARK    4  A    between atoms: C_4  and  C_5
REMARK    5  A    between atoms: C_5  and  C_6
REMARK    6  A    between atoms: C_6  and  C_7
REMARK    7  A    between atoms: C_10  and  O_11
REMARK    8  A    between atoms: C_14  and  C_15
REMARK    9  A    between atoms: C_15  and  C_16
REMARK   10  A    between atoms: C_19  and  O_20
REMARK                            x       y       z     vdW  Elec       q    Type
REMARK                         _______ _______ _______ _____ _____    ______ ____
ROOT
ATOM      1  O   UNL     1       4.340 -16.968  31.270  0.00  0.00    +0.000 OA
ATOM      2  C   UNL     1       5.376 -17.672  31.483  0.00  0.00    +0.000 C 
ENDROOT
BRANCH   2   3
ATOM      3  C   UNL     1       5.522 -18.433  32.791  0.00  0.00    +0.000 C 
BRANCH   3   4
ATOM      4  C   UNL     1       6.943 -18.286  33.308  0.00  0.00    +0.000 C 
BRANCH   4   5
ATOM      5  C   UNL     1       6.960 -17.312  34.475  0.00  0.00    +0.000 C 
BRANCH   5   6
ATOM      6  C   UNL     1       7.632 -16.018  34.045  0.00  0.00    +0.000 C 
BRANCH   6   7
ATOM      7  C   UNL     1       6.572 -15.004  33.645  0.00  0.00    +0.000 A 
ATOM      8  C   UNL     1       6.875 -14.195  32.573  0.00  0.00    +0.000 A 
ATOM      9  C   UNL     1       5.923 -13.321  32.037  0.00  0.00    +0.000 A 
ATOM     10  C   UNL     1       4.640 -13.315  32.623  0.00  0.00    +0.000 A 
ATOM     11  C   UNL     1       4.360 -14.105  33.712  0.00  0.00    +0.000 A 
ATOM     12  C   UNL     1       5.324 -14.956  34.216  0.00  0.00    +0.000 A 
BRANCH  10  13
ATOM     13  O   UNL     1       3.650 -12.520  32.158  0.00  0.00    +0.000 OA
ATOM     14  H   UNL     1       2.755 -12.524  32.604  0.00  0.00    +0.000 HD
ENDBRANCH  10  13
ENDBRANCH   6   7
ENDBRANCH   5   6
ENDBRANCH   4   5
ENDBRANCH   3   4
ENDBRANCH   2   3
BRANCH   2  15
ATOM     15  C   UNL     1       6.469 -17.755  30.431  0.00  0.00    +0.000 C 
BRANCH  15  16
ATOM     16  C   UNL     1       6.614 -16.406  29.744  0.00  0.00    +0.000 C 
BRANCH  16  17
ATOM     17  C   UNL     1       8.079 -16.003  29.723  0.00  0.00    +0.000 A 
ATOM     18  C   UNL     1       8.974 -16.624  30.565  0.00  0.00    +0.000 A 
ATOM     19  C   UNL     1      10.330 -16.279  30.558  0.00  0.00    +0.000 A 
ATOM     20  C   UNL     1      10.746 -15.287  29.646  0.00  0.00    +0.000 A 
ATOM     21  C   UNL     1       9.838 -14.653  28.831  0.00  0.00    +0.000 A 
ATOM     22  C   UNL     1       8.507 -15.019  28.865  0.00  0.00    +0.000 A 
BRANCH  20  23
ATOM     23  O   UNL     1      12.041 -14.907  29.552  0.00  0.00    +0.000 OA
ATOM     24  H   UNL     1      12.636 -14.956  30.355  0.00  0.00    +0.000 HD
ENDBRANCH  20  23
ENDBRANCH  16  17
ENDBRANCH  15  16
ENDBRANCH   2  15
TORSDOF 10
ENDMDL
MODEL 2
REMARK VINA RESULT:    -4.754      3.177      5.209
REMARK INTER + INTRA:          -9.660
REMARK INTER:                  -8.192
REMARK INTRA:                  -1.469
REMARK UNBOUND:                -2.405
REMARK  Name = 
REMARK  10 active torsions:
REMARK  status: ('A' for Active; 'I' for Inactive)
REMARK    1  A    between atoms: C_2  and  C_3
REMARK    2  A    between atoms: C_2  and  C_14
REMARK    3  A    between atoms: C_3  and  C_4
REMARK    4  A    between atoms: C_4  and  C_5
REMARK    5  A    between atoms: C_5  and  C_6
REMARK    6  A    between atoms: C_6  and  C_7
REMARK    7  A    between atoms: C_10  and  O_11
REMARK    8  A    between atoms: C_14  and  C_15
REMARK    9  A    between atoms: C_15  and  C_16
REMARK   10  A    between atoms: C_19  and  O_20
REMARK                            x       y       z     vdW  Elec       q    Type
REMARK                         _______ _______ _______ _____ _____    ______ ____
ROOT
ATOM      1  O   UNL     1       3.761 -15.644  32.911  0.00  0.00    +0.000 OA
ATOM      2  C   UNL     1       4.657 -14.851  33.341  0.00  0.00    +0.000 C 
ENDROOT
BRANCH   2   3
ATOM      3  C   UNL     1       4.982 -13.582  32.571  0.00  0.00    +0.000 C 
BRANCH   3   4
ATOM      4  C   UNL     1       5.442 -13.943  31.168  0.00  0.00    +0.000 C 
BRANCH   4   5
ATOM      5  C   UNL     1       6.434 -12.901  30.677  0.00  0.00    +0.000 C 
BRANCH   5   6
ATOM      6  C   UNL     1       6.394 -11.691  31.595  0.00  0.00    +0.000 C 
BRANCH   6   7
ATOM      7  C   UNL     1       5.952 -10.469  30.806  0.00  0.00    +0.000 A 
ATOM      8  C   UNL     1       5.066  -9.624  31.436  0.00  0.00    +0.000 A 
ATOM      9  C   UNL     1       4.698  -8.404  30.858  0.00  0.00    +0.000 A 
ATOM     10  C   UNL     1       5.282  -8.067  29.619  0.00  0.00    +0.000 A 
ATOM     11  C   UNL     1       6.142  -8.933  28.987  0.00  0.00    +0.000 A 
ATOM     12  C   UNL     1       6.483 -10.129  29.586  0.00  0.00    +0.000 A 
BRANCH  10  13
ATOM     13  O   UNL     1       5.004  -6.898  28.997  0.00  0.00    +0.000 OA
ATOM     14  H   UNL     1       4.858  -6.069  29.535  0.00  0.00    +0.000 HD
ENDBRANCH  10  13
ENDBRANCH   6   7
ENDBRANCH   5   6
ENDBRANCH   4   5
ENDBRANCH   3   4
ENDBRANCH   2   3
BRANCH   2  15
ATOM     15  C   UNL     1       5.403 -15.172  34.625  0.00  0.00    +0.000 C 
BRANCH  15  16
ATOM     16  C   UNL     1       6.899 -15.052  34.386  0.00  0.00    +0.000 C 
BRANCH  16  17
ATOM     17  C   UNL     1       7.385 -16.259  33.602  0.00  0.00    +0.000 A 
ATOM     18  C   UNL     1       8.171 -16.081  32.484  0.00  0.00    +0.000 A 
ATOM     19  C   UNL     1       8.640 -17.176  31.750  0.00  0.00    +0.000 A 
ATOM     20  C   UNL     1       8.295 -18.464  32.207  0.00  0.00    +0.000 A 
ATOM     21  C   UNL     1       7.486 -18.629  33.307  0.00  0.00    +0.000 A 
ATOM     22  C   UNL     1       7.040 -17.526  34.008  0.00  0.00    +0.000 A 
BRANCH  20  23
ATOM     23  O   UNL     1       8.724 -19.580  31.576  0.00  0.00    +0.000 OA
ATOM     24  H   UNL     1       9.369 -19.508  30.816  0.00  0.00    +0.000 HD
ENDBRANCH  20  23
ENDBRANCH  16  17
ENDBRANCH  15  16
ENDBRANCH   2  15
TORSDOF 10
ENDMDL
MODEL 3
REMARK VINA RESULT:    -4.580      2.090      4.304
REMARK INTER + INTRA:          -9.395
REMARK INTER:                  -6.214
REMARK INTRA:                  -3.181
REMARK UNBOUND:                -2.405
REMARK  Name = 
REMARK  10 active torsions:
REMARK  status: ('A' for Active; 'I' for Inactive)
REMARK    1  A    between atoms: C_2  and  C_3
REMARK    2  A    between atoms: C_2  and  C_14
REMARK    3  A    between atoms: C_3  and  C_4
REMARK    4  A    between atoms: C_4  and  C_5
REMARK    5  A    between atoms: C_5  and  C_6
REMARK    6  A    between atoms: C_6  and  C_7
REMARK    7  A    between atoms: C_10  and  O_11
REMARK    8  A    between atoms: C_14  and  C_15
REMARK    9  A    between atoms: C_15  and  C_16
REMARK   10  A    between atoms: C_19  and  O_20
REMARK                            x       y       z     vdW  Elec       q    Type
REMARK                         _______ _______ _______ _____ _____    ______ ____
ROOT
ATOM      1  O   UNL     1       2.776 -18.319  32.693  0.00  0.00    +0.000 OA
ATOM      2  C   UNL     1       3.657 -17.607  33.270  0.00  0.00    +0.000 C 
ENDROOT
BRANCH   2   3
ATOM      3  C   UNL     1       4.507 -18.202  34.380  0.00  0.00    +0.000 C 
BRANCH   3   4
ATOM      4  C   UNL     1       5.463 -17.147  34.909  0.00  0.00    +0.000 C 
BRANCH   4   5
ATOM      5  C   UNL     1       6.889 -17.527  34.545  0.00  0.00    +0.000 C 
BRANCH   5   6
ATOM      6  C   UNL     1       7.565 -16.354  33.854  0.00  0.00    +0.000 C 
BRANCH   6   7
ATOM      7  C   UNL     1       7.916 -16.740  32.426  0.00  0.00    +0.000 A 
ATOM      8  C   UNL     1       7.286 -17.856  31.924  0.00  0.00    +0.000 A 
ATOM      9  C   UNL     1       7.431 -18.224  30.581  0.00  0.00    +0.000 A 
ATOM     10  C   UNL     1       8.229 -17.399  29.762  0.00  0.00    +0.000 A 
ATOM     11  C   UNL     1       8.876 -16.304  30.282  0.00  0.00    +0.000 A 
ATOM     12  C   UNL     1       8.711 -15.970  31.613  0.00  0.00    +0.000 A 
BRANCH  10  13
ATOM     13  O   UNL     1       8.407 -17.662  28.447  0.00  0.00    +0.000 OA
ATOM     14  H   UNL     1       8.591 -18.597  28.146  0.00  0.00    +0.000 HD
ENDBRANCH  10  13
ENDBRANCH   6   7
ENDBRANCH   5   6
ENDBRANCH   4   5
ENDBRANCH   3   4
ENDBRANCH   2   3
BRANCH   2  15
ATOM     15  C   UNL     1       3.860 -16.161  32.850  0.00  0.00    +0.000 C 
BRANCH  15  16
ATOM     16  C   UNL     1       4.138 -16.101  31.357  0.00  0.00    +0.000 C 
BRANCH  16  17
ATOM     17  C   UNL     1       5.036 -14.913  31.056  0.00  0.00    +0.000 A 
ATOM     18  C   UNL     1       5.523 -14.727  29.781  0.00  0.00    +0.000 A 
ATOM     19  C   UNL     1       6.344 -13.635  29.475  0.00  0.00    +0.000 A 
ATOM     20  C   UNL     1       6.637 -12.727  30.513  0.00  0.00    +0.000 A 
ATOM     21  C   UNL     1       6.168 -12.940  31.788  0.00  0.00    +0.000 A 
ATOM     22  C   UNL     1       5.361 -14.028  32.055  0.00  0.00    +0.000 A 
BRANCH  20  23
ATOM     23  O   UNL     1       7.400 -11.631  30.303  0.00  0.00    +0.000 OA
ATOM     24  H   UNL     1       7.736 -11.424  29.384  0.00  0.00    +0.000 HD
ENDBRANCH  20  23
ENDBRANCH  16  17
ENDBRANCH  15  16
ENDBRANCH   2  15
TORSDOF 10
ENDMDL
MODEL 4
REMARK VINA RESULT:    -4.502      2.110      4.842
REMARK INTER + INTRA:          -9.276
REMARK INTER:                  -6.032
REMARK INTRA:                  -3.244
REMARK UNBOUND:                -2.405
REMARK  Name = 
REMARK  10 active torsions:
REMARK  status: ('A' for Active; 'I' for Inactive)
REMARK    1  A    between atoms: C_2  and  C_3
REMARK    2  A    between atoms: C_2  and  C_14
REMARK    3  A    between atoms: C_3  and  C_4
REMARK    4  A    between atoms: C_4  and  C_5
REMARK    5  A    between atoms: C_5  and  C_6
REMARK    6  A    between atoms: C_6  and  C_7
REMARK    7  A    between atoms: C_10  and  O_11
REMARK    8  A    between atoms: C_14  and  C_15
REMARK    9  A    between atoms: C_15  and  C_16
REMARK   10  A    between atoms: C_19  and  O_20
REMARK                            x       y       z     vdW  Elec       q    Type
REMARK                         _______ _______ _______ _____ _____    ______ ____
ROOT
ATOM      1  O   UNL     1       7.541 -16.168  27.773  0.00  0.00    +0.000 OA
ATOM      2  C   UNL     1       8.333 -15.866  28.720  0.00  0.00    +0.000 C 
ENDROOT
BRANCH   2   3
ATOM      3  C   UNL     1       8.816 -14.434  28.879  0.00  0.00    +0.000 C 
BRANCH   3   4
ATOM      4  C   UNL     1       7.628 -13.489  28.824  0.00  0.00    +0.000 C 
BRANCH   4   5
ATOM      5  C   UNL     1       6.922 -13.484  30.171  0.00  0.00    +0.000 C 
BRANCH   5   6
ATOM      6  C   UNL     1       5.442 -13.762  29.967  0.00  0.00    +0.000 C 
BRANCH   6   7
ATOM      7  C   UNL     1       4.999 -14.870  30.909  0.00  0.00    +0.000 A 
ATOM      8  C   UNL     1       4.427 -14.470  32.095  0.00  0.00    +0.000 A 
ATOM      9  C   UNL     1       3.863 -15.401  32.975  0.00  0.00    +0.000 A 
ATOM     10  C   UNL     1       3.887 -16.758  32.591  0.00  0.00    +0.000 A 
ATOM     11  C   UNL     1       4.488 -17.147  31.418  0.00  0.00    +0.000 A 
ATOM     12  C   UNL     1       5.035 -16.201  30.574  0.00  0.00    +0.000 A 
BRANCH  10  13
ATOM     13  O   UNL     1       3.346 -17.725  33.366  0.00  0.00    +0.000 OA
ATOM     14  H   UNL     1       3.218 -18.646  32.998  0.00  0.00    +0.000 HD
ENDBRANCH  10  13
ENDBRANCH   6   7
ENDBRANCH   5   6
ENDBRANCH   4   5
ENDBRANCH   3   4
ENDBRANCH   2   3
BRANCH   2  15
ATOM     15  C   UNL     1       8.796 -16.937  29.694  0.00  0.00    +0.000 C 
BRANCH  15  16
ATOM     16  C   UNL     1       9.331 -16.278  30.955  0.00  0.00    +0.000 C 
BRANCH  16  17
ATOM     17  C   UNL     1       8.452 -16.655  32.136  0.00  0.00    +0.000 A 
ATOM     18  C   UNL     1       8.046 -15.686  33.026  0.00  0.00    +0.000 A 
ATOM     19  C   UNL     1       7.229 -16.004  34.116  0.00  0.00    +0.000 A 
ATOM     20  C   UNL     1       6.822 -17.347  34.257  0.00  0.00    +0.000 A 
ATOM     21  C   UNL     1       7.258 -18.310  33.378  0.00  0.00    +0.000 A 
ATOM     22  C   UNL     1       8.065 -17.961  32.313  0.00  0.00    +0.000 A 
BRANCH  20  23
ATOM     23  O   UNL     1       6.012 -17.742  35.265  0.00  0.00    +0.000 OA
ATOM     24  H   UNL     1       5.028 -17.573  35.211  0.00  0.00    +0.000 HD
ENDBRANCH  20  23
ENDBRANCH  16  17
ENDBRANCH  15  16
ENDBRANCH   2  15
TORSDOF 10
ENDMDL
MODEL 5
REMARK VINA RESULT:    -4.481      2.466      4.898
REMARK INTER + INTRA:          -9.243
REMARK INTER:                  -6.838
REMARK INTRA:                  -2.405
REMARK UNBOUND:                -2.405
REMARK  Name = 
REMARK  10 active torsions:
REMARK  status: ('A' for Active; 'I' for Inactive)
REMARK    1  A    between atoms: C_2  and  C_3
REMARK    2  A    between atoms: C_2  and  C_14
REMARK    3  A    between atoms: C_3  and  C_4
REMARK    4  A    between atoms: C_4  and  C_5
REMARK    5  A    between atoms: C_5  and  C_6
REMARK    6  A    between atoms: C_6  and  C_7
REMARK    7  A    between atoms: C_10  and  O_11
REMARK    8  A    between atoms: C_14  and  C_15
REMARK    9  A    between atoms: C_15  and  C_16
REMARK   10  A    between atoms: C_19  and  O_20
REMARK                            x       y       z     vdW  Elec       q    Type
REMARK                         _______ _______ _______ _____ _____    ______ ____
ROOT
ATOM      1  O   UNL     1       6.530 -17.350  30.936  0.00  0.00    +0.000 OA
ATOM      2  C   UNL     1       7.145 -16.277  31.229  0.00  0.00    +0.000 C 
ENDROOT
BRANCH   2   3
ATOM      3  C   UNL     1       8.020 -16.217  32.470  0.00  0.00    +0.000 C 
BRANCH   3   4
ATOM      4  C   UNL     1       7.656 -14.990  33.289  0.00  0.00    +0.000 C 
BRANCH   4   5
ATOM      5  C   UNL     1       6.852 -15.415  34.508  0.00  0.00    +0.000 C 
BRANCH   5   6
ATOM      6  C   UNL     1       5.388 -15.068  34.294  0.00  0.00    +0.000 C 
BRANCH   6   7
ATOM      7  C   UNL     1       4.644 -16.292  33.785  0.00  0.00    +0.000 A 
ATOM      8  C   UNL     1       4.923 -17.482  34.419  0.00  0.00    +0.000 A 
ATOM      9  C   UNL     1       4.201 -18.644  34.125  0.00  0.00    +0.000 A 
ATOM     10  C   UNL     1       3.168 -18.544  33.169  0.00  0.00    +0.000 A 
ATOM     11  C   UNL     1       2.920 -17.358  32.522  0.00  0.00    +0.000 A 
ATOM     12  C   UNL     1       3.653 -16.230  32.837  0.00  0.00    +0.000 A 
BRANCH  10  13
ATOM     13  O   UNL     1       2.402 -19.608  32.837  0.00  0.00    +0.000 OA
ATOM     14  H   UNL     1       1.991 -20.171  33.554  0.00  0.00    +0.000 HD
ENDBRANCH  10  13
ENDBRANCH   6   7
ENDBRANCH   5   6
ENDBRANCH   4   5
ENDBRANCH   3   4
ENDBRANCH   2   3
BRANCH   2  15
ATOM     15  C   UNL     1       7.006 -15.054  30.338  0.00  0.00    +0.000 C 
BRANCH  15  16
ATOM     16  C   UNL     1       5.545 -14.639  30.271  0.00  0.00    +0.000 C 
BRANCH  16  17
ATOM     17  C   UNL     1       5.394 -13.225  30.806  0.00  0.00    +0.000 A 
ATOM     18  C   UNL     1       6.488 -12.391  30.861  0.00  0.00    +0.000 A 
ATOM     19  C   UNL     1       6.374 -11.081  31.339  0.00  0.00    +0.000 A 
ATOM     20  C   UNL     1       5.097 -10.643  31.745  0.00  0.00    +0.000 A 
ATOM     21  C   UNL     1       4.018 -11.494  31.713  0.00  0.00    +0.000 A 
ATOM     22  C   UNL     1       4.166 -12.781  31.235  0.00  0.00    +0.000 A 
BRANCH  20  23
ATOM     23  O   UNL     1       4.888  -9.387  32.197  0.00  0.00    +0.000 OA
ATOM     24  H   UNL     1       5.184  -8.603  31.652  0.00  0.00    +0.000 HD
ENDBRANCH  20  23
ENDBRANCH  16  17
ENDBRANCH  15  16
ENDBRANCH   2  15
TORSDOF 10
ENDMDL
