MODEL 1
REMARK VINA RESULT:    -5.102      0.000      0.000
REMARK INTER + INTRA:          -7.332
REMARK INTER:                  -6.547
REMARK INTRA:                  -0.786
REMARK UNBOUND:                -0.739
REMARK  Name = 
REMARK  7 active torsions:
REMARK  status: ('A' for Active; 'I' for Inactive)
REMARK    1  A    between atoms: C_1  and  O_2
REMARK    2  A    between atoms: O_2  and  C_3
REMARK    3  A    between atoms: C_6  and  C_7
REMARK    4  A    between atoms: C_8  and  C_9
REMARK    5  A    between atoms: C_9  and  C_11
REMARK    6  A    between atoms: C_14  and  O_15
REMARK    7  A    between atoms: C_17  and  O_18
REMARK                            x       y       z     vdW  Elec       q    Type
REMARK                         _______ _______ _______ _____ _____    ______ ____
ROOT
ATOM      1  C   UNL     1       3.297 -11.703  30.991  0.00  0.00    +0.000 C 
ATOM      2  O   UNL     1       2.035 -11.567  31.043  0.00  0.00    +0.000 OA
ENDROOT
BRANCH   1   3
ATOM      3  C   UNL     1       4.163 -10.566  30.471  0.00  0.00    +0.000 A 
ATOM      4  C   UNL     1       4.655 -10.627  29.177  0.00  0.00    +0.000 A 
ATOM      5  C   UNL     1       5.674  -9.684  28.905  0.00  0.00    +0.000 A 
ATOM      6  C   UNL     1       5.914  -8.611  29.636  0.00  0.00    +0.000 A 
ATOM      7  C   UNL     1       5.345  -8.580  30.879  0.00  0.00    +0.000 A 
ATOM      8  C   UNL     1       4.440  -9.538  31.265  0.00  0.00    +0.000 A 
BRANCH   6   9
ATOM      9  O   UNL     1       6.720  -7.544  29.156  0.00  0.00    +0.000 OA
ATOM     10  H   UNL     1       7.713  -7.648  29.113  0.00  0.00    +0.000 HD
ENDBRANCH   6   9
BRANCH   8  11
ATOM     11  O   UNL     1       3.792  -9.429  32.524  0.00  0.00    +0.000 OA
ATOM     12  H   UNL     1       4.215  -8.903  33.260  0.00  0.00    +0.000 HD
ENDBRANCH   8  11
ENDBRANCH   1   3
BRANCH   1  14
ATOM     13  C   UNL     1       4.687 -13.026  32.587  0.00  0.00    +0.000 C 
ATOM     14  C   UNL     1       3.943 -13.000  31.449  0.00  0.00    +0.000 C 
BRANCH  13  18
ATOM     15  C   UNL     1       6.522 -16.578  34.091  0.00  0.00    +0.000 A 
ATOM     16  C   UNL     1       5.158 -16.409  34.263  0.00  0.00    +0.000 A 
ATOM     17  C   UNL     1       4.620 -15.317  33.543  0.00  0.00    +0.000 A 
ATOM     18  C   UNL     1       5.333 -14.323  33.045  0.00  0.00    +0.000 A 
ATOM     19  C   UNL     1       6.682 -14.525  32.963  0.00  0.00    +0.000 A 
ATOM     20  C   UNL     1       7.266 -15.633  33.529  0.00  0.00    +0.000 A 
BRANCH  15  22
ATOM     21  C   UNL     1       7.512 -18.733  33.442  0.00  0.00    +0.000 C 
ATOM     22  O   UNL     1       7.129 -17.810  34.450  0.00  0.00    +0.000 OA
ENDBRANCH  15  22
ENDBRANCH  13  18
ENDBRANCH   1  14
TORSDOF 6
ENDMDL
MODEL 2
REMARK VINA RESULT:    -5.052      2.348      7.644
REMARK INTER + INTRA:          -7.267
REMARK INTER:                  -6.566
REMARK INTRA:                  -0.701
REMARK UNBOUND:                -0.739
REMARK  Name = 
REMARK  7 active torsions:
REMARK  status: ('A' for Active; 'I' for Inactive)
REMARK    1  A    between atoms: C_1  and  O_2
REMARK    2  A    between atoms: O_2  and  C_3
REMARK    3  A    between atoms: C_6  and  C_7
REMARK    4  A    between atoms: C_8  and  C_9
REMARK    5  A    between atoms: C_9  and  C_11
REMARK    6  A    between atoms: C_14  and  O_15
REMARK    7  A    between atoms: C_17  and  O_18
REMARK                            x       y       z     vdW  Elec       q    Type
REMARK                         _______ _______ _______ _____ _____    ______ ____
ROOT
ATOM      1  C   UNL     1       5.762 -14.157  32.576  0.00  0.00    +0.000 C 
ATOM      2  O   UNL     1       5.215 -14.541  33.657  0.00  0.00    +0.000 OA
ENDROOT
BRANCH   1   3
ATOM      3  C   UNL     1       6.819 -15.023  31.909  0.00  0.00    +0.000 A 
ATOM      4  C   UNL     1       6.714 -15.298  30.556  0.00  0.00    +0.000 A 
ATOM      5  C   UNL     1       7.566 -16.338  30.114  0.00  0.00    +0.000 A 
ATOM      6  C   UNL     1       8.616 -16.779  30.782  0.00  0.00    +0.000 A 
ATOM      7  C   UNL     1       8.698 -16.417  32.098  0.00  0.00    +0.000 A 
ATOM      8  C   UNL     1       7.821 -15.506  32.634  0.00  0.00    +0.000 A 
BRANCH   6   9
ATOM      9  O   UNL     1       9.609 -17.586  30.165  0.00  0.00    +0.000 OA
ATOM     10  H   UNL     1      10.341 -17.987  30.716  0.00  0.00    +0.000 HD
ENDBRANCH   6   9
BRANCH   8  11
ATOM     11  O   UNL     1       7.988 -15.075  33.977  0.00  0.00    +0.000 OA
ATOM     12  H   UNL     1       8.895 -15.081  34.396  0.00  0.00    +0.000 HD
ENDBRANCH   8  11
ENDBRANCH   1   3
BRANCH   1  14
ATOM     13  C   UNL     1       6.314 -11.981  31.485  0.00  0.00    +0.000 C 
ATOM     14  C   UNL     1       5.360 -12.832  31.949  0.00  0.00    +0.000 C 
BRANCH  13  18
ATOM     15  C   UNL     1       5.366  -8.157  29.835  0.00  0.00    +0.000 A 
ATOM     16  C   UNL     1       6.321  -8.937  29.202  0.00  0.00    +0.000 A 
ATOM     17  C   UNL     1       6.399 -10.260  29.696  0.00  0.00    +0.000 A 
ATOM     18  C   UNL     1       5.912 -10.657  30.857  0.00  0.00    +0.000 A 
ATOM     19  C   UNL     1       5.025  -9.812  31.465  0.00  0.00    +0.000 A 
ATOM     20  C   UNL     1       4.797  -8.551  30.967  0.00  0.00    +0.000 A 
BRANCH  15  22
ATOM     21  C   UNL     1       3.555  -6.765  28.925  0.00  0.00    +0.000 C 
ATOM     22  O   UNL     1       4.930  -6.950  29.227  0.00  0.00    +0.000 OA
ENDBRANCH  15  22
ENDBRANCH  13  18
ENDBRANCH   1  14
TORSDOF 6
ENDMDL
MODEL 3
REMARK VINA RESULT:    -5.036      2.133      8.071
REMARK INTER + INTRA:          -7.247
REMARK INTER:                  -6.610
REMARK INTRA:                  -0.637
REMARK UNBOUND:                -0.739
REMARK  Name = 
REMARK  7 active torsions:
REMARK  status: ('A' for Active; 'I' for Inactive)
REMARK    1  A    between atoms: C_1  and  O_2
REMARK    2  A    between atoms: O_2  and  C_3
REMARK    3  A    between atoms: C_6  and  C_7
REMARK    4  A    between atoms: C_8  and  C_9
REMARK    5  A    between atoms: C_9  and  C_11
REMARK    6  A    between atoms: C_14  and  O_15
REMARK    7  A    between atoms: C_17  and  O_18
REMARK                            x       y       z     vdW  Elec       q    Type
REMARK                         _______ _______ _______ _____ _____    ______ ____
ROOT
ATOM      1  C   UNL     1       6.788 -14.471  31.112  0.00  0.00    +0.000 C 
ATOM      2  O   UNL     1       7.665 -14.881  30.288  0.00  0.00    +0.000 OA
ENDROOT
BRANCH   1   3
ATOM      3  C   UNL     1       6.349 -15.364  32.262  0.00  0.00    +0.000 A 
ATOM      4  C   UNL     1       4.998 -15.578  32.475  0.00  0.00    +0.000 A 
ATOM      5  C   UNL     1       4.700 -16.167  33.726  0.00  0.00    +0.000 A 
ATOM      6  C   UNL     1       5.580 -16.795  34.485  0.00  0.00    +0.000 A 
ATOM      7  C   UNL     1       6.898 -16.597  34.182  0.00  0.00    +0.000 A 
ATOM      8  C   UNL     1       7.267 -15.919  33.045  0.00  0.00    +0.000 A 
BRANCH   6   9
ATOM      9  O   UNL     1       5.178 -17.632  35.560  0.00  0.00    +0.000 OA
ATOM     10  H   UNL     1       4.895 -18.574  35.381  0.00  0.00    +0.000 HD
ENDBRANCH   6   9
BRANCH   8  11
ATOM     11  O   UNL     1       8.641 -15.810  32.704  0.00  0.00    +0.000 OA
ATOM     12  H   UNL     1       9.063 -16.489  32.104  0.00  0.00    +0.000 HD
ENDBRANCH   8  11
ENDBRANCH   1   3
BRANCH   1  14
ATOM     13  C   UNL     1       6.809 -12.152  30.190  0.00  0.00    +0.000 C 
ATOM     14  C   UNL     1       6.179 -13.089  30.949  0.00  0.00    +0.000 C 
BRANCH  13  18
ATOM     15  C   UNL     1       5.297  -8.175  29.818  0.00  0.00    +0.000 A 
ATOM     16  C   UNL     1       6.085  -8.685  28.799  0.00  0.00    +0.000 A 
ATOM     17  C   UNL     1       6.348 -10.069  28.917  0.00  0.00    +0.000 A 
ATOM     18  C   UNL     1       6.199 -10.770  30.027  0.00  0.00    +0.000 A 
ATOM     19  C   UNL     1       5.466 -10.183  31.021  0.00  0.00    +0.000 A 
ATOM     20  C   UNL     1       5.062  -8.874  30.922  0.00  0.00    +0.000 A 
BRANCH  15  22
ATOM     21  C   UNL     1       3.322  -6.848  29.194  0.00  0.00    +0.000 C 
ATOM     22  O   UNL     1       4.664  -6.914  29.653  0.00  0.00    +0.000 OA
ENDBRANCH  15  22
ENDBRANCH  13  18
ENDBRANCH   1  14
TORSDOF 6
ENDMDL
MODEL 4
REMARK VINA RESULT:    -4.944      5.852      8.206
REMARK INTER + INTRA:          -7.127
REMARK INTER:                  -6.399
REMARK INTRA:                  -0.728
REMARK UNBOUND:                -0.739
REMARK  Name = 
REMARK  7 active torsions:
REMARK  status: ('A' for Active; 'I' for Inactive)
REMARK    1  A    between atoms: C_1  and  O_2
REMARK    2  A    between atoms: O_2  and  C_3
REMARK    3  A    between atoms: C_6  and  C_7
REMARK    4  A    between atoms: C_8  and  C_9
REMARK    5  A    between atoms: C_9  and  C_11
REMARK    6  A    between atoms: C_14  and  O_15
REMARK    7  A    between atoms: C_17  and  O_18
REMARK                            x       y       z     vdW  Elec       q    Type
REMARK                         _______ _______ _______ _____ _____    ______ ____
ROOT
ATOM      1  C   UNL     1       6.140 -12.522  27.750  0.00  0.00    +0.000 C 
ATOM      2  O   UNL     1       6.043 -13.431  28.633  0.00  0.00    +0.000 OA
ENDROOT
BRANCH   1   3
ATOM      3  C   UNL     1       5.864 -11.073  28.118  0.00  0.00    +0.000 A 
ATOM      4  C   UNL     1       4.954 -10.346  27.368  0.00  0.00    +0.000 A 
ATOM      5  C   UNL     1       4.998  -8.952  27.606  0.00  0.00    +0.000 A 
ATOM      6  C   UNL     1       5.558  -8.391  28.663  0.00  0.00    +0.000 A 
ATOM      7  C   UNL     1       6.394  -9.181  29.402  0.00  0.00    +0.000 A 
ATOM      8  C   UNL     1       6.502 -10.527  29.146  0.00  0.00    +0.000 A 
BRANCH   6   9
ATOM      9  O   UNL     1       5.303  -7.039  29.015  0.00  0.00    +0.000 OA
ATOM     10  H   UNL     1       5.226  -6.343  28.301  0.00  0.00    +0.000 HD
ENDBRANCH   6   9
BRANCH   8  11
ATOM     11  O   UNL     1       7.304 -11.341  29.988  0.00  0.00    +0.000 OA
ATOM     12  H   UNL     1       7.527 -12.277  29.715  0.00  0.00    +0.000 HD
ENDBRANCH   8  11
ENDBRANCH   1   3
BRANCH   1  14
ATOM     13  C   UNL     1       7.813 -12.709  25.908  0.00  0.00    +0.000 C 
ATOM     14  C   UNL     1       6.531 -12.883  26.326  0.00  0.00    +0.000 C 
BRANCH  13  18
ATOM     15  C   UNL     1       9.141 -13.705  21.972  0.00  0.00    +0.000 A 
ATOM     16  C   UNL     1       9.045 -14.714  22.917  0.00  0.00    +0.000 A 
ATOM     17  C   UNL     1       8.394 -14.321  24.110  0.00  0.00    +0.000 A 
ATOM     18  C   UNL     1       8.205 -13.069  24.484  0.00  0.00    +0.000 A 
ATOM     19  C   UNL     1       8.380 -12.114  23.521  0.00  0.00    +0.000 A 
ATOM     20  C   UNL     1       8.890 -12.441  22.288  0.00  0.00    +0.000 A 
BRANCH  15  22
ATOM     21  C   UNL     1      10.624 -13.542  20.018  0.00  0.00    +0.000 C 
ATOM     22  O   UNL     1       9.438 -14.033  20.623  0.00  0.00    +0.000 OA
ENDBRANCH  15  22
ENDBRANCH  13  18
ENDBRANCH   1  14
TORSDOF 6
ENDMDL
MODEL 5
REMARK VINA RESULT:    -4.839      3.484      7.334
REMARK INTER + INTRA:          -6.993
REMARK INTER:                  -6.254
REMARK INTRA:                  -0.739
REMARK UNBOUND:                -0.739
REMARK  Name = 
REMARK  7 active torsions:
REMARK  status: ('A' for Active; 'I' for Inactive)
REMARK    1  A    between atoms: C_1  and  O_2
REMARK    2  A    between atoms: O_2  and  C_3
REMARK    3  A    between atoms: C_6  and  C_7
REMARK    4  A    between atoms: C_8  and  C_9
REMARK    5  A    between atoms: C_9  and  C_11
REMARK    6  A    between atoms: C_14  and  O_15
REMARK    7  A    between atoms: C_17  and  O_18
REMARK                            x       y       z     vdW  Elec       q    Type
REMARK                         _______ _______ _______ _____ _____    ______ ____
ROOT
ATOM      1  C   UNL     1       5.281 -13.244  32.197  0.00  0.00    +0.000 C 
ATOM      2  O   UNL     1       4.329 -12.516  32.619  0.00  0.00    +0.000 OA
ENDROOT
BRANCH   1   3
ATOM      3  C   UNL     1       5.712 -14.467  32.991  0.00  0.00    +0.000 A 
ATOM      4  C   UNL     1       7.059 -14.670  33.244  0.00  0.00    +0.000 A 
ATOM      5  C   UNL     1       7.364 -15.967  33.720  0.00  0.00    +0.000 A 
ATOM      6  C   UNL     1       6.480 -16.804  34.230  0.00  0.00    +0.000 A 
ATOM      7  C   UNL     1       5.163 -16.512  34.004  0.00  0.00    +0.000 A 
ATOM      8  C   UNL     1       4.793 -15.323  33.425  0.00  0.00    +0.000 A 
BRANCH   6   9
ATOM      9  O   UNL     1       6.874 -17.947  34.975  0.00  0.00    +0.000 OA
ATOM     10  H   UNL     1       7.843 -18.119  35.151  0.00  0.00    +0.000 HD
ENDBRANCH   6   9
BRANCH   8  11
ATOM     11  O   UNL     1       3.417 -15.004  33.288  0.00  0.00    +0.000 OA
ATOM     12  H   UNL     1       2.732 -15.508  33.814  0.00  0.00    +0.000 HD
ENDBRANCH   8  11
ENDBRANCH   1   3
BRANCH   1  14
ATOM     13  C   UNL     1       5.976 -13.771  29.859  0.00  0.00    +0.000 C 
ATOM     14  C   UNL     1       5.989 -12.894  30.898  0.00  0.00    +0.000 C 
BRANCH  13  18
ATOM     15  C   UNL     1       7.874 -12.985  26.114  0.00  0.00    +0.000 A 
ATOM     16  C   UNL     1       6.560 -12.582  26.291  0.00  0.00    +0.000 A 
ATOM     17  C   UNL     1       6.103 -12.691  27.625  0.00  0.00    +0.000 A 
ATOM     18  C   UNL     1       6.684 -13.421  28.560  0.00  0.00    +0.000 A 
ATOM     19  C   UNL     1       7.957 -13.845  28.297  0.00  0.00    +0.000 A 
ATOM     20  C   UNL     1       8.520 -13.659  27.057  0.00  0.00    +0.000 A 
BRANCH  15  22
ATOM     21  C   UNL     1       8.166 -13.120  23.676  0.00  0.00    +0.000 C 
ATOM     22  O   UNL     1       8.571 -12.607  24.936  0.00  0.00    +0.000 OA
ENDBRANCH  15  22
ENDBRANCH  13  18
ENDBRANCH   1  14
TORSDOF 6
ENDMDL
