MODEL 1
REMARK VINA RESULT:    -5.896      0.000      0.000
REMARK INTER + INTRA:          -7.304
REMARK INTER:                  -6.851
REMARK INTRA:                  -0.453
REMARK UNBOUND:                -0.374
REMARK  Name = 
REMARK  5 active torsions:
REMARK  status: ('A' for Active; 'I' for Inactive)
REMARK    1  A    between atoms: C_4  and  C_5
REMARK    2  A    between atoms: C_14  and  O_15
REMARK    3  A    between atoms: O_15  and  C_16
REMARK    4  A    between atoms: C_18  and  O_19
REMARK    5  A    between atoms: O_19  and  C_20
REMARK                            x       y       z     vdW  Elec       q    Type
REMARK                         _______ _______ _______ _____ _____    ______ ____
ROOT
ATOM      1  O   UNL     1       2.138 -11.874  33.333  0.00  0.00    +0.000 OA
ATOM      2  C   UNL     1       3.266 -12.298  33.070  0.00  0.00    +0.000 A 
ATOM      3  C   UNL     1       3.879 -13.472  33.657  0.00  0.00    +0.000 A 
ATOM      4  C   UNL     1       5.162 -13.862  33.212  0.00  0.00    +0.000 A 
ATOM      5  O   UNL     1       5.888 -13.153  32.323  0.00  0.00    +0.000 OA
ATOM      6  C   UNL     1       5.346 -12.029  31.725  0.00  0.00    +0.000 A 
ATOM      7  C   UNL     1       6.144 -11.397  30.785  0.00  0.00    +0.000 A 
ATOM      8  C   UNL     1       5.630 -10.284  30.146  0.00  0.00    +0.000 A 
ATOM      9  C   UNL     1       4.358  -9.815  30.441  0.00  0.00    +0.000 A 
ATOM     10  C   UNL     1       3.587 -10.459  31.386  0.00  0.00    +0.000 A 
ATOM     11  C   UNL     1       4.080 -11.588  32.051  0.00  0.00    +0.000 A 
ENDROOT
BRANCH   4  12
ATOM     12  C   UNL     1       5.755 -15.148  33.764  0.00  0.00    +0.000 A 
ATOM     13  C   UNL     1       7.117 -15.371  33.639  0.00  0.00    +0.000 A 
ATOM     14  C   UNL     1       7.507 -16.702  33.917  0.00  0.00    +0.000 A 
ATOM     15  C   UNL     1       6.769 -17.578  34.575  0.00  0.00    +0.000 A 
ATOM     16  C   UNL     1       5.446 -17.267  34.724  0.00  0.00    +0.000 A 
ATOM     17  C   UNL     1       4.963 -16.035  34.356  0.00  0.00    +0.000 A 
ENDBRANCH   4  12
BRANCH   8  18
ATOM     18  O   UNL     1       6.415  -9.611  29.174  0.00  0.00    +0.000 OA
ATOM     19  C   UNL     1       6.361  -8.195  29.072  0.00  0.00    +0.000 C 
ENDBRANCH   8  18
BRANCH  10  20
ATOM     20  O   UNL     1       2.287  -9.975  31.685  0.00  0.00    +0.000 OA
ATOM     21  C   UNL     1       2.092  -8.600  31.984  0.00  0.00    +0.000 C 
ENDBRANCH  10  20
TORSDOF 3
ENDMDL
MODEL 2
REMARK VINA RESULT:    -5.647      1.086      3.052
REMARK INTER + INTRA:          -7.012
REMARK INTER:                  -6.578
REMARK INTRA:                  -0.434
REMARK UNBOUND:                -0.374
REMARK  Name = 
REMARK  5 active torsions:
REMARK  status: ('A' for Active; 'I' for Inactive)
REMARK    1  A    between atoms: C_4  and  C_5
REMARK    2  A    between atoms: C_14  and  O_15
REMARK    3  A    between atoms: O_15  and  C_16
REMARK    4  A    between atoms: C_18  and  O_19
REMARK    5  A    between atoms: O_19  and  C_20
REMARK                            x       y       z     vdW  Elec       q    Type
REMARK                         _______ _______ _______ _____ _____    ______ ____
ROOT
ATOM      1  O   UNL     1       7.127 -11.946  29.927  0.00  0.00    +0.000 OA
ATOM      2  C   UNL     1       6.365 -12.328  30.818  0.00  0.00    +0.000 A 
ATOM      3  C   UNL     1       6.496 -13.564  31.562  0.00  0.00    +0.000 A 
ATOM      4  C   UNL     1       5.570 -13.838  32.593  0.00  0.00    +0.000 A 
ATOM      5  O   UNL     1       4.514 -13.046  32.874  0.00  0.00    +0.000 OA
ATOM      6  C   UNL     1       4.347 -11.850  32.199  0.00  0.00    +0.000 A 
ATOM      7  C   UNL     1       3.266 -11.076  32.592  0.00  0.00    +0.000 A 
ATOM      8  C   UNL     1       3.078  -9.862  31.960  0.00  0.00    +0.000 A 
ATOM      9  C   UNL     1       3.943  -9.434  30.963  0.00  0.00    +0.000 A 
ATOM     10  C   UNL     1       5.007 -10.225  30.586  0.00  0.00    +0.000 A 
ATOM     11  C   UNL     1       5.223 -11.462  31.206  0.00  0.00    +0.000 A 
ENDROOT
BRANCH   4  12
ATOM     12  C   UNL     1       5.774 -15.090  33.430  0.00  0.00    +0.000 A 
ATOM     13  C   UNL     1       7.049 -15.409  33.868  0.00  0.00    +0.000 A 
ATOM     14  C   UNL     1       7.168 -16.723  34.378  0.00  0.00    +0.000 A 
ATOM     15  C   UNL     1       6.150 -17.475  34.758  0.00  0.00    +0.000 A 
ATOM     16  C   UNL     1       4.909 -17.068  34.351  0.00  0.00    +0.000 A 
ATOM     17  C   UNL     1       4.731 -15.856  33.729  0.00  0.00    +0.000 A 
ENDBRANCH   4  12
BRANCH   8  18
ATOM     18  O   UNL     1       1.983  -9.040  32.337  0.00  0.00    +0.000 OA
ATOM     19  C   UNL     1       2.179  -7.649  32.547  0.00  0.00    +0.000 C 
ENDBRANCH   8  18
BRANCH  10  20
ATOM     20  O   UNL     1       5.888  -9.783  29.565  0.00  0.00    +0.000 OA
ATOM     21  C   UNL     1       6.093  -8.394  29.355  0.00  0.00    +0.000 C 
ENDBRANCH  10  20
TORSDOF 3
ENDMDL
MODEL 3
REMARK VINA RESULT:    -5.480      2.185      7.403
REMARK INTER + INTRA:          -6.815
REMARK INTER:                  -6.353
REMARK INTRA:                  -0.462
REMARK UNBOUND:                -0.374
REMARK  Name = 
REMARK  5 active torsions:
REMARK  status: ('A' for Active; 'I' for Inactive)
REMARK    1  A    between atoms: C_4  and  C_5
REMARK    2  A    between atoms: C_14  and  O_15
REMARK    3  A    between atoms: O_15  and  C_16
REMARK    4  A    between atoms: C_18  and  O_19
REMARK    5  A    between atoms: O_19  and  C_20
REMARK                            x       y       z     vdW  Elec       q    Type
REMARK                         _______ _______ _______ _____ _____    ______ ____
ROOT
ATOM      1  O   UNL     1       7.959 -14.699  29.127  0.00  0.00    +0.000 OA
ATOM      2  C   UNL     1       7.327 -13.958  29.884  0.00  0.00    +0.000 A 
ATOM      3  C   UNL     1       7.093 -12.544  29.671  0.00  0.00    +0.000 A 
ATOM      4  C   UNL     1       6.302 -11.839  30.605  0.00  0.00    +0.000 A 
ATOM      5  O   UNL     1       5.815 -12.393  31.735  0.00  0.00    +0.000 OA
ATOM      6  C   UNL     1       6.002 -13.741  31.982  0.00  0.00    +0.000 A 
ATOM      7  C   UNL     1       5.420 -14.234  33.140  0.00  0.00    +0.000 A 
ATOM      8  C   UNL     1       5.562 -15.581  33.411  0.00  0.00    +0.000 A 
ATOM      9  C   UNL     1       6.269 -16.412  32.552  0.00  0.00    +0.000 A 
ATOM     10  C   UNL     1       6.843 -15.896  31.411  0.00  0.00    +0.000 A 
ATOM     11  C   UNL     1       6.719 -14.534  31.109  0.00  0.00    +0.000 A 
ENDROOT
BRANCH   4  12
ATOM     12  C   UNL     1       5.982 -10.381  30.323  0.00  0.00    +0.000 A 
ATOM     13  C   UNL     1       5.226  -9.666  31.237  0.00  0.00    +0.000 A 
ATOM     14  C   UNL     1       4.749  -8.429  30.745  0.00  0.00    +0.000 A 
ATOM     15  C   UNL     1       5.234  -7.807  29.685  0.00  0.00    +0.000 A 
ATOM     16  C   UNL     1       6.029  -8.549  28.856  0.00  0.00    +0.000 A 
ATOM     17  C   UNL     1       6.431  -9.814  29.208  0.00  0.00    +0.000 A 
ENDBRANCH   4  12
BRANCH   8  18
ATOM     18  O   UNL     1       4.978 -16.124  34.585  0.00  0.00    +0.000 OA
ATOM     19  C   UNL     1       5.124 -17.506  34.879  0.00  0.00    +0.000 C 
ENDBRANCH   8  18
BRANCH  10  20
ATOM     20  O   UNL     1       7.566 -16.749  30.536  0.00  0.00    +0.000 OA
ATOM     21  C   UNL     1       8.580 -17.600  31.052  0.00  0.00    +0.000 C 
ENDBRANCH  10  20
TORSDOF 3
ENDMDL
MODEL 4
REMARK VINA RESULT:    -5.401      2.084      6.600
REMARK INTER + INTRA:          -6.723
REMARK INTER:                  -6.264
REMARK INTRA:                  -0.459
REMARK UNBOUND:                -0.374
REMARK  Name = 
REMARK  5 active torsions:
REMARK  status: ('A' for Active; 'I' for Inactive)
REMARK    1  A    between atoms: C_4  and  C_5
REMARK    2  A    between atoms: C_14  and  O_15
REMARK    3  A    between atoms: O_15  and  C_16
REMARK    4  A    between atoms: C_18  and  O_19
REMARK    5  A    between atoms: O_19  and  C_20
REMARK                            x       y       z     vdW  Elec       q    Type
REMARK                         _______ _______ _______ _____ _____    ______ ____
ROOT
ATOM      1  O   UNL     1       3.676 -13.850  33.689  0.00  0.00    +0.000 OA
ATOM      2  C   UNL     1       4.489 -13.484  32.839  0.00  0.00    +0.000 A 
ATOM      3  C   UNL     1       4.519 -12.177  32.213  0.00  0.00    +0.000 A 
ATOM      4  C   UNL     1       5.549 -11.888  31.291  0.00  0.00    +0.000 A 
ATOM      5  O   UNL     1       6.468 -12.794  30.896  0.00  0.00    +0.000 OA
ATOM      6  C   UNL     1       6.490 -14.053  31.468  0.00  0.00    +0.000 A 
ATOM      7  C   UNL     1       7.503 -14.897  31.039  0.00  0.00    +0.000 A 
ATOM      8  C   UNL     1       7.576 -16.156  31.604  0.00  0.00    +0.000 A 
ATOM      9  C   UNL     1       6.662 -16.561  32.567  0.00  0.00    +0.000 A 
ATOM     10  C   UNL     1       5.660 -15.704  32.971  0.00  0.00    +0.000 A 
ATOM     11  C   UNL     1       5.558 -14.423  32.416  0.00  0.00    +0.000 A 
ENDROOT
BRANCH   4  12
ATOM     12  C   UNL     1       5.626 -10.485  30.714  0.00  0.00    +0.000 A 
ATOM     13  C   UNL     1       4.948  -9.456  31.347  0.00  0.00    +0.000 A 
ATOM     14  C   UNL     1       4.849  -8.274  30.576  0.00  0.00    +0.000 A 
ATOM     15  C   UNL     1       5.604  -7.997  29.529  0.00  0.00    +0.000 A 
ATOM     16  C   UNL     1       6.303  -9.042  28.990  0.00  0.00    +0.000 A 
ATOM     17  C   UNL     1       6.341 -10.264  29.617  0.00  0.00    +0.000 A 
ENDBRANCH   4  12
BRANCH   8  18
ATOM     18  O   UNL     1       8.601 -17.048  31.194  0.00  0.00    +0.000 OA
ATOM     19  C   UNL     1       9.832 -16.539  30.703  0.00  0.00    +0.000 C 
ENDBRANCH   8  18
BRANCH  10  20
ATOM     20  O   UNL     1       4.727 -16.124  33.955  0.00  0.00    +0.000 OA
ATOM     21  C   UNL     1       5.046 -17.202  34.822  0.00  0.00    +0.000 C 
ENDBRANCH  10  20
TORSDOF 3
ENDMDL
MODEL 5
REMARK VINA RESULT:    -5.325      2.094      3.492
REMARK INTER + INTRA:          -6.633
REMARK INTER:                  -6.259
REMARK INTRA:                  -0.374
REMARK UNBOUND:                -0.374
REMARK  Name = 
REMARK  5 active torsions:
REMARK  status: ('A' for Active; 'I' for Inactive)
REMARK    1  A    between atoms: C_4  and  C_5
REMARK    2  A    between atoms: C_14  and  O_15
REMARK    3  A    between atoms: O_15  and  C_16
REMARK    4  A    between atoms: C_18  and  O_19
REMARK    5  A    between atoms: O_19  and  C_20
REMARK                            x       y       z     vdW  Elec       q    Type
REMARK                         _______ _______ _______ _____ _____    ______ ____
ROOT
ATOM      1  O   UNL     1       6.910 -14.437  28.148  0.00  0.00    +0.000 OA
ATOM      2  C   UNL     1       6.598 -14.114  29.296  0.00  0.00    +0.000 A 
ATOM      3  C   UNL     1       6.515 -15.014  30.429  0.00  0.00    +0.000 A 
ATOM      4  C   UNL     1       6.194 -14.481  31.697  0.00  0.00    +0.000 A 
ATOM      5  O   UNL     1       5.880 -13.185  31.902  0.00  0.00    +0.000 OA
ATOM      6  C   UNL     1       5.953 -12.281  30.857  0.00  0.00    +0.000 A 
ATOM      7  C   UNL     1       5.666 -10.963  31.173  0.00  0.00    +0.000 A 
ATOM      8  C   UNL     1       5.751 -10.024  30.162  0.00  0.00    +0.000 A 
ATOM      9  C   UNL     1       6.110 -10.392  28.873  0.00  0.00    +0.000 A 
ATOM     10  C   UNL     1       6.384 -11.712  28.584  0.00  0.00    +0.000 A 
ATOM     11  C   UNL     1       6.304 -12.688  29.586  0.00  0.00    +0.000 A 
ENDROOT
BRANCH   4  12
ATOM     12  C   UNL     1       6.204 -15.417  32.894  0.00  0.00    +0.000 A 
ATOM     13  C   UNL     1       7.408 -15.950  33.325  0.00  0.00    +0.000 A 
ATOM     14  C   UNL     1       7.267 -17.018  34.243  0.00  0.00    +0.000 A 
ATOM     15  C   UNL     1       6.167 -17.279  34.926  0.00  0.00    +0.000 A 
ATOM     16  C   UNL     1       5.023 -16.668  34.492  0.00  0.00    +0.000 A 
ATOM     17  C   UNL     1       5.063 -15.709  33.509  0.00  0.00    +0.000 A 
ENDBRANCH   4  12
BRANCH   8  18
ATOM     18  O   UNL     1       5.468  -8.662  30.447  0.00  0.00    +0.000 OA
ATOM     19  C   UNL     1       5.991  -7.638  29.613  0.00  0.00    +0.000 C 
ENDBRANCH   8  18
BRANCH  10  20
ATOM     20  O   UNL     1       6.748 -12.085  27.263  0.00  0.00    +0.000 OA
ATOM     21  C   UNL     1       5.818 -11.935  26.201  0.00  0.00    +0.000 C 
ENDBRANCH  10  20
TORSDOF 3
ENDMDL
