MODEL 1
REMARK VINA RESULT:    -5.136      0.000      0.000
REMARK INTER + INTRA:          -6.773
REMARK INTER:                  -6.285
REMARK INTRA:                  -0.488
REMARK UNBOUND:                -0.435
REMARK  Name = 
REMARK  6 active torsions:
REMARK  status: ('A' for Active; 'I' for Inactive)
REMARK    1  A    between atoms: C_1  and  O_2
REMARK    2  A    between atoms: O_2  and  C_3
REMARK    3  A    between atoms: C_5  and  C_6
REMARK    4  A    between atoms: C_7  and  C_8
REMARK    5  A    between atoms: C_15  and  O_16
REMARK    6  A    between atoms: O_16  and  C_17
REMARK                            x       y       z     vdW  Elec       q    Type
REMARK                         _______ _______ _______ _____ _____    ______ ____
ROOT
ATOM      1  C   UNL     1       3.839 -10.108  31.820  0.00  0.00    +0.000 A 
ATOM      2  C   UNL     1       4.088 -11.441  32.104  0.00  0.00    +0.000 A 
ATOM      3  C   UNL     1       5.322 -11.915  31.599  0.00  0.00    +0.000 A 
ATOM      4  C   UNL     1       6.021 -11.318  30.652  0.00  0.00    +0.000 A 
ATOM      5  C   UNL     1       5.683 -10.023  30.369  0.00  0.00    +0.000 A 
ATOM      6  C   UNL     1       4.565  -9.449  30.925  0.00  0.00    +0.000 A 
ENDROOT
BRANCH   1   8
ATOM      7  C   UNL     1       1.792 -10.278  33.170  0.00  0.00    +0.000 C 
ATOM      8  O   UNL     1       2.721  -9.491  32.442  0.00  0.00    +0.000 OA
ENDBRANCH   1   8
BRANCH   3   9
ATOM      9  C   UNL     1       5.879 -13.201  32.186  0.00  0.00    +0.000 C 
ATOM     10  C   UNL     1       5.090 -13.993  32.961  0.00  0.00    +0.000 C 
BRANCH  10  11
ATOM     11  C   UNL     1       5.648 -15.279  33.549  0.00  0.00    +0.000 A 
ATOM     12  C   UNL     1       4.831 -16.246  34.110  0.00  0.00    +0.000 A 
ATOM     13  C   UNL     1       5.534 -17.266  34.793  0.00  0.00    +0.000 A 
ATOM     14  C   UNL     1       6.821 -17.522  34.636  0.00  0.00    +0.000 A 
ATOM     15  C   UNL     1       7.562 -16.557  34.013  0.00  0.00    +0.000 A 
ATOM     16  C   UNL     1       6.958 -15.465  33.437  0.00  0.00    +0.000 A 
ENDBRANCH  10  11
ENDBRANCH   3   9
BRANCH   5  17
ATOM     17  O   UNL     1       6.496  -9.264  29.488  0.00  0.00    +0.000 OA
ATOM     18  C   UNL     1       6.212  -7.889  29.268  0.00  0.00    +0.000 C 
ENDBRANCH   5  17
TORSDOF 4
ENDMDL
MODEL 2
REMARK VINA RESULT:    -5.136      1.716      3.290
REMARK INTER + INTRA:          -6.772
REMARK INTER:                  -6.305
REMARK INTRA:                  -0.467
REMARK UNBOUND:                -0.435
REMARK  Name = 
REMARK  6 active torsions:
REMARK  status: ('A' for Active; 'I' for Inactive)
REMARK    1  A    between atoms: C_1  and  O_2
REMARK    2  A    between atoms: O_2  and  C_3
REMARK    3  A    between atoms: C_5  and  C_6
REMARK    4  A    between atoms: C_7  and  C_8
REMARK    5  A    between atoms: C_15  and  O_16
REMARK    6  A    between atoms: O_16  and  C_17
REMARK                            x       y       z     vdW  Elec       q    Type
REMARK                         _______ _______ _______ _____ _____    ______ ____
ROOT
ATOM      1  C   UNL     1       6.437 -11.525  28.667  0.00  0.00    +0.000 A 
ATOM      2  C   UNL     1       6.625 -12.455  29.675  0.00  0.00    +0.000 A 
ATOM      3  C   UNL     1       6.151 -12.035  30.940  0.00  0.00    +0.000 A 
ATOM      4  C   UNL     1       5.889 -10.782  31.263  0.00  0.00    +0.000 A 
ATOM      5  C   UNL     1       5.782  -9.896  30.226  0.00  0.00    +0.000 A 
ATOM      6  C   UNL     1       6.103 -10.270  28.943  0.00  0.00    +0.000 A 
ENDROOT
BRANCH   1   8
ATOM      7  C   UNL     1       7.422 -13.125  27.082  0.00  0.00    +0.000 C 
ATOM      8  O   UNL     1       6.706 -11.926  27.331  0.00  0.00    +0.000 OA
ENDBRANCH   1   8
BRANCH   3   9
ATOM      9  C   UNL     1       5.929 -13.099  32.002  0.00  0.00    +0.000 C 
ATOM     10  C   UNL     1       6.654 -14.250  31.975  0.00  0.00    +0.000 C 
BRANCH  10  11
ATOM     11  C   UNL     1       6.432 -15.314  33.036  0.00  0.00    +0.000 A 
ATOM     12  C   UNL     1       7.480 -16.032  33.589  0.00  0.00    +0.000 A 
ATOM     13  C   UNL     1       7.069 -17.118  34.396  0.00  0.00    +0.000 A 
ATOM     14  C   UNL     1       5.855 -17.261  34.899  0.00  0.00    +0.000 A 
ATOM     15  C   UNL     1       4.876 -16.474  34.358  0.00  0.00    +0.000 A 
ATOM     16  C   UNL     1       5.185 -15.478  33.462  0.00  0.00    +0.000 A 
ENDBRANCH  10  11
ENDBRANCH   3   9
BRANCH   5  17
ATOM     17  O   UNL     1       5.336  -8.573  30.478  0.00  0.00    +0.000 OA
ATOM     18  C   UNL     1       5.686  -7.523  29.588  0.00  0.00    +0.000 C 
ENDBRANCH   5  17
TORSDOF 4
ENDMDL
MODEL 3
REMARK VINA RESULT:    -5.089      2.878      7.608
REMARK INTER + INTRA:          -6.715
REMARK INTER:                  -6.246
REMARK INTRA:                  -0.469
REMARK UNBOUND:                -0.435
REMARK  Name = 
REMARK  6 active torsions:
REMARK  status: ('A' for Active; 'I' for Inactive)
REMARK    1  A    between atoms: C_1  and  O_2
REMARK    2  A    between atoms: O_2  and  C_3
REMARK    3  A    between atoms: C_5  and  C_6
REMARK    4  A    between atoms: C_7  and  C_8
REMARK    5  A    between atoms: C_15  and  O_16
REMARK    6  A    between atoms: O_16  and  C_17
REMARK                            x       y       z     vdW  Elec       q    Type
REMARK                         _______ _______ _______ _____ _____    ______ ____
ROOT
ATOM      1  C   UNL     1       7.646 -15.668  32.179  0.00  0.00    +0.000 A 
ATOM      2  C   UNL     1       7.132 -14.580  31.493  0.00  0.00    +0.000 A 
ATOM      3  C   UNL     1       6.038 -13.959  32.140  0.00  0.00    +0.000 A 
ATOM      4  C   UNL     1       5.315 -14.520  33.092  0.00  0.00    +0.000 A 
ATOM      5  C   UNL     1       5.846 -15.632  33.684  0.00  0.00    +0.000 A 
ATOM      6  C   UNL     1       6.985 -16.219  33.189  0.00  0.00    +0.000 A 
ENDROOT
BRANCH   1   8
ATOM      7  C   UNL     1       8.823 -17.353  30.828  0.00  0.00    +0.000 C 
ATOM      8  O   UNL     1       8.858 -16.240  31.708  0.00  0.00    +0.000 OA
ENDBRANCH   1   8
BRANCH   3   9
ATOM      9  C   UNL     1       5.668 -12.550  31.708  0.00  0.00    +0.000 C 
ATOM     10  C   UNL     1       6.458 -11.878  30.828  0.00  0.00    +0.000 C 
BRANCH  10  11
ATOM     11  C   UNL     1       6.089 -10.468  30.397  0.00  0.00    +0.000 A 
ATOM     12  C   UNL     1       6.533  -9.925  29.202  0.00  0.00    +0.000 A 
ATOM     13  C   UNL     1       6.269  -8.541  29.069  0.00  0.00    +0.000 A 
ATOM     14  C   UNL     1       5.389  -7.873  29.793  0.00  0.00    +0.000 A 
ATOM     15  C   UNL     1       4.937  -8.492  30.925  0.00  0.00    +0.000 A 
ATOM     16  C   UNL     1       5.259  -9.802  31.191  0.00  0.00    +0.000 A 
ENDBRANCH  10  11
ENDBRANCH   3   9
BRANCH   5  17
ATOM     17  O   UNL     1       5.211 -16.188  34.826  0.00  0.00    +0.000 OA
ATOM     18  C   UNL     1       5.050 -17.594  34.935  0.00  0.00    +0.000 C 
ENDBRANCH   5  17
TORSDOF 4
ENDMDL
MODEL 4
REMARK VINA RESULT:    -5.049      2.916      6.961
REMARK INTER + INTRA:          -6.665
REMARK INTER:                  -6.208
REMARK INTRA:                  -0.457
REMARK UNBOUND:                -0.435
REMARK  Name = 
REMARK  6 active torsions:
REMARK  status: ('A' for Active; 'I' for Inactive)
REMARK    1  A    between atoms: C_1  and  O_2
REMARK    2  A    between atoms: O_2  and  C_3
REMARK    3  A    between atoms: C_5  and  C_6
REMARK    4  A    between atoms: C_7  and  C_8
REMARK    5  A    between atoms: C_15  and  O_16
REMARK    6  A    between atoms: O_16  and  C_17
REMARK                            x       y       z     vdW  Elec       q    Type
REMARK                         _______ _______ _______ _____ _____    ______ ____
ROOT
ATOM      1  C   UNL     1       5.034 -16.051  33.390  0.00  0.00    +0.000 A 
ATOM      2  C   UNL     1       4.679 -14.727  33.195  0.00  0.00    +0.000 A 
ATOM      3  C   UNL     1       5.698 -13.938  32.612  0.00  0.00    +0.000 A 
ATOM      4  C   UNL     1       6.975 -14.273  32.575  0.00  0.00    +0.000 A 
ATOM      5  C   UNL     1       7.269 -15.582  32.844  0.00  0.00    +0.000 A 
ATOM      6  C   UNL     1       6.298 -16.445  33.293  0.00  0.00    +0.000 A 
ENDROOT
BRANCH   1   8
ATOM      7  C   UNL     1       4.375 -18.241  34.294  0.00  0.00    +0.000 C 
ATOM      8  O   UNL     1       4.021 -16.961  33.793  0.00  0.00    +0.000 OA
ENDBRANCH   1   8
BRANCH   3   9
ATOM      9  C   UNL     1       5.297 -12.614  31.985  0.00  0.00    +0.000 C 
ATOM     10  C   UNL     1       6.250 -11.779  31.490  0.00  0.00    +0.000 C 
BRANCH  10  11
ATOM     11  C   UNL     1       5.848 -10.453  30.863  0.00  0.00    +0.000 A 
ATOM     12  C   UNL     1       5.013  -9.557  31.511  0.00  0.00    +0.000 A 
ATOM     13  C   UNL     1       4.580  -8.485  30.696  0.00  0.00    +0.000 A 
ATOM     14  C   UNL     1       5.156  -8.125  29.563  0.00  0.00    +0.000 A 
ATOM     15  C   UNL     1       6.023  -9.025  29.008  0.00  0.00    +0.000 A 
ATOM     16  C   UNL     1       6.392 -10.161  29.688  0.00  0.00    +0.000 A 
ENDBRANCH  10  11
ENDBRANCH   3   9
BRANCH   5  17
ATOM     17  O   UNL     1       8.594 -16.055  32.657  0.00  0.00    +0.000 OA
ATOM     18  C   UNL     1       9.064 -16.353  31.351  0.00  0.00    +0.000 C 
ENDBRANCH   5  17
TORSDOF 4
ENDMDL
MODEL 5
REMARK VINA RESULT:    -4.812      6.132      9.718
REMARK INTER + INTRA:          -6.372
REMARK INTER:                  -5.937
REMARK INTRA:                  -0.435
REMARK UNBOUND:                -0.435
REMARK  Name = 
REMARK  6 active torsions:
REMARK  status: ('A' for Active; 'I' for Inactive)
REMARK    1  A    between atoms: C_1  and  O_2
REMARK    2  A    between atoms: O_2  and  C_3
REMARK    3  A    between atoms: C_5  and  C_6
REMARK    4  A    between atoms: C_7  and  C_8
REMARK    5  A    between atoms: C_15  and  O_16
REMARK    6  A    between atoms: O_16  and  C_17
REMARK                            x       y       z     vdW  Elec       q    Type
REMARK                         _______ _______ _______ _____ _____    ______ ____
ROOT
ATOM      1  C   UNL     1       1.440 -21.326  34.701  0.00  0.00    +0.000 A 
ATOM      2  C   UNL     1       2.543 -20.500  34.845  0.00  0.00    +0.000 A 
ATOM      3  C   UNL     1       3.477 -20.600  33.786  0.00  0.00    +0.000 A 
ATOM      4  C   UNL     1       3.531 -21.602  32.928  0.00  0.00    +0.000 A 
ATOM      5  C   UNL     1       2.438 -22.423  32.882  0.00  0.00    +0.000 A 
ATOM      6  C   UNL     1       1.424 -22.301  33.801  0.00  0.00    +0.000 A 
ENDROOT
BRANCH   1   8
ATOM      7  C   UNL     1      -0.919 -21.685  35.295  0.00  0.00    +0.000 C 
ATOM      8  O   UNL     1       0.362 -21.161  35.611  0.00  0.00    +0.000 OA
ENDBRANCH   1   8
BRANCH   3   9
ATOM      9  C   UNL     1       4.488 -19.477  33.627  0.00  0.00    +0.000 C 
ATOM     10  C   UNL     1       4.432 -18.390  34.443  0.00  0.00    +0.000 C 
BRANCH  10  11
ATOM     11  C   UNL     1       5.444 -17.267  34.283  0.00  0.00    +0.000 A 
ATOM     12  C   UNL     1       6.777 -17.513  33.999  0.00  0.00    +0.000 A 
ATOM     13  C   UNL     1       7.605 -16.370  34.097  0.00  0.00    +0.000 A 
ATOM     14  C   UNL     1       7.165 -15.124  34.093  0.00  0.00    +0.000 A 
ATOM     15  C   UNL     1       5.826 -14.951  34.311  0.00  0.00    +0.000 A 
ATOM     16  C   UNL     1       4.973 -16.027  34.359  0.00  0.00    +0.000 A 
ENDBRANCH  10  11
ENDBRANCH   3   9
BRANCH   5  17
ATOM     17  O   UNL     1       2.350 -23.415  31.870  0.00  0.00    +0.000 OA
ATOM     18  C   UNL     1       3.036 -24.649  32.024  0.00  0.00    +0.000 C 
ENDBRANCH   5  17
TORSDOF 4
ENDMDL
