MODEL 1
REMARK VINA RESULT:    -7.232      0.000      0.000
REMARK INTER + INTRA:         -11.543
REMARK INTER:                  -9.898
REMARK INTRA:                  -1.645
REMARK UNBOUND:                -1.563
REMARK  Name = 
REMARK  8 active torsions:
REMARK  status: ('A' for Active; 'I' for Inactive)
REMARK    1  A    between atoms: C_1  and  C_2
REMARK    2  A    between atoms: C_13  and  C_14
REMARK    3  A    between atoms: N_16  and  C_17
REMARK    4  A    between atoms: C_21  and  C_22
REMARK    5  A    between atoms: C_22  and  C_23
REMARK    6  A    between atoms: C_23  and  C_24
REMARK    7  A    between atoms: C_29  and  C_30
REMARK    8  A    between atoms: C_30  and  O_32
REMARK                            x       y       z     vdW  Elec       q    Type
REMARK                         _______ _______ _______ _____ _____    ______ ____
ROOT
ATOM      1  C   UNL     1       9.851 -16.515  30.025  0.00  0.00    +0.000 C 
ATOM      2  O   UNL     1      10.860 -15.815  30.351  0.00  0.00    +0.000 OA
ATOM      3  N   UNL     1       9.817 -17.949  30.341  0.00  0.00    +0.000 N 
ATOM      4  H   UNL     1      10.603 -18.384  30.824  0.00  0.00    +0.000 HD
ENDROOT
BRANCH   1  17
ATOM      5  C   UNL     1       4.830 -10.079  26.414  0.00  0.00    +0.000 C 
ATOM      6  C   UNL     1       4.943  -9.466  27.812  0.00  0.00    +0.000 A 
ATOM      7  C   UNL     1       4.500  -8.171  28.044  0.00  0.00    +0.000 A 
ATOM      8  C   UNL     1       4.576  -7.593  29.310  0.00  0.00    +0.000 A 
ATOM      9  C   UNL     1       5.100  -8.309  30.351  0.00  0.00    +0.000 A 
ATOM     10  C   UNL     1       5.584  -9.632  30.170  0.00  0.00    +0.000 A 
ATOM     11  C   UNL     1       6.163 -10.464  31.201  0.00  0.00    +0.000 A 
ATOM     12  C   UNL     1       6.586 -11.715  30.906  0.00  0.00    +0.000 A 
ATOM     13  C   UNL     1       6.434 -12.218  29.573  0.00  0.00    +0.000 A 
ATOM     14  N   UNL     1       6.870 -13.589  29.273  0.00  0.00    +0.000 N 
ATOM     15  C   UNL     1       6.389 -14.920  29.663  0.00  0.00    +0.000 C 
ATOM     16  C   UNL     1       7.509 -15.732  30.277  0.00  0.00    +0.000 C 
ATOM     17  C   UNL     1       8.679 -15.867  29.304  0.00  0.00    +0.000 C 
ATOM     18  C   UNL     1       9.105 -14.491  28.796  0.00  0.00    +0.000 C 
ATOM     19  C   UNL     1       7.909 -13.728  28.254  0.00  0.00    +0.000 C 
ATOM     20  N   UNL     1       5.909 -11.478  28.598  0.00  0.00    +0.000 NA
ATOM     21  C   UNL     1       5.499 -10.217  28.900  0.00  0.00    +0.000 A 
ENDBRANCH   1  17
BRANCH   3  22
ATOM     22  C   UNL     1       8.649 -18.757  29.958  0.00  0.00    +0.000 C 
ATOM     23  C   UNL     1       8.785 -19.758  28.792  0.00  0.00    +0.000 C 
ATOM     24  C   UNL     1       9.440 -21.022  29.381  0.00  0.00    +0.000 C 
ATOM     25  C   UNL     1       9.203 -20.917  30.947  0.00  0.00    +0.000 C 
ATOM     26  C   UNL     1       8.266 -19.713  31.126  0.00  0.00    +0.000 C 
BRANCH  26  27
ATOM     27  C   UNL     1       8.414 -19.057  32.490  0.00  0.00    +0.000 C 
BRANCH  27  28
ATOM     28  C   UNL     1       7.054 -18.978  33.164  0.00  0.00    +0.000 C 
BRANCH  28  29
ATOM     29  C   UNL     1       6.772 -17.540  33.569  0.00  0.00    +0.000 A 
ATOM     30  C   UNL     1       7.799 -16.612  33.537  0.00  0.00    +0.000 A 
ATOM     31  C   UNL     1       7.498 -15.399  34.200  0.00  0.00    +0.000 A 
ATOM     32  C   UNL     1       6.278 -14.999  34.509  0.00  0.00    +0.000 A 
ATOM     33  C   UNL     1       5.294 -15.947  34.455  0.00  0.00    +0.000 A 
ATOM     34  C   UNL     1       5.545 -17.197  33.942  0.00  0.00    +0.000 A 
BRANCH  34  35
ATOM     35  C   UNL     1       4.407 -18.195  33.799  0.00  0.00    +0.000 C 
ATOM     36  O   UNL     1       3.753 -18.261  32.712  0.00  0.00    +0.000 OA
BRANCH  35  37
ATOM     37  O   UNL     1       4.076 -19.052  34.881  0.00  0.00    +0.000 OA
ATOM     38  H   UNL     1       3.310 -18.825  35.483  0.00  0.00    +0.000 HD
ENDBRANCH  35  37
ENDBRANCH  34  35
ENDBRANCH  28  29
ENDBRANCH  27  28
ENDBRANCH  26  27
ENDBRANCH   3  22
TORSDOF 7
ENDMDL
MODEL 2
REMARK VINA RESULT:    -7.075      3.610      9.585
REMARK INTER + INTRA:         -11.327
REMARK INTER:                  -9.117
REMARK INTRA:                  -2.209
REMARK UNBOUND:                -1.563
REMARK  Name = 
REMARK  8 active torsions:
REMARK  status: ('A' for Active; 'I' for Inactive)
REMARK    1  A    between atoms: C_1  and  C_2
REMARK    2  A    between atoms: C_13  and  C_14
REMARK    3  A    between atoms: N_16  and  C_17
REMARK    4  A    between atoms: C_21  and  C_22
REMARK    5  A    between atoms: C_22  and  C_23
REMARK    6  A    between atoms: C_23  and  C_24
REMARK    7  A    between atoms: C_29  and  C_30
REMARK    8  A    between atoms: C_30  and  O_32
REMARK                            x       y       z     vdW  Elec       q    Type
REMARK                         _______ _______ _______ _____ _____    ______ ____
ROOT
ATOM      1  C   UNL     1       3.005 -11.647  26.842  0.00  0.00    +0.000 C 
ATOM      2  O   UNL     1       1.941 -12.332  26.973  0.00  0.00    +0.000 OA
ATOM      3  N   UNL     1       3.052 -10.539  25.879  0.00  0.00    +0.000 N 
ATOM      4  H   UNL     1       2.231 -10.317  25.315  0.00  0.00    +0.000 HD
ENDROOT
BRANCH   1  17
ATOM      5  C   UNL     1       8.505 -16.395  32.026  0.00  0.00    +0.000 C 
ATOM      6  C   UNL     1       7.258 -16.525  32.906  0.00  0.00    +0.000 A 
ATOM      7  C   UNL     1       7.256 -17.399  33.985  0.00  0.00    +0.000 A 
ATOM      8  C   UNL     1       6.141 -17.527  34.812  0.00  0.00    +0.000 A 
ATOM      9  C   UNL     1       5.021 -16.783  34.560  0.00  0.00    +0.000 A 
ATOM     10  C   UNL     1       4.961 -15.886  33.461  0.00  0.00    +0.000 A 
ATOM     11  C   UNL     1       3.824 -15.065  33.106  0.00  0.00    +0.000 A 
ATOM     12  C   UNL     1       3.889 -14.243  32.033  0.00  0.00    +0.000 A 
ATOM     13  C   UNL     1       5.098 -14.172  31.268  0.00  0.00    +0.000 A 
ATOM     14  N   UNL     1       5.165 -13.251  30.124  0.00  0.00    +0.000 N 
ATOM     15  C   UNL     1       5.178 -11.789  29.991  0.00  0.00    +0.000 C 
ATOM     16  C   UNL     1       4.079 -11.330  29.057  0.00  0.00    +0.000 C 
ATOM     17  C   UNL     1       4.228 -11.978  27.682  0.00  0.00    +0.000 C 
ATOM     18  C   UNL     1       4.341 -13.495  27.822  0.00  0.00    +0.000 C 
ATOM     19  C   UNL     1       5.426 -13.860  28.821  0.00  0.00    +0.000 C 
ATOM     20  N   UNL     1       6.163 -14.914  31.564  0.00  0.00    +0.000 NA
ATOM     21  C   UNL     1       6.084 -15.749  32.634  0.00  0.00    +0.000 A 
ENDBRANCH   1  17
BRANCH   3  22
ATOM     22  C   UNL     1       4.286  -9.752  25.727  0.00  0.00    +0.000 C 
ATOM     23  C   UNL     1       4.922  -9.626  24.327  0.00  0.00    +0.000 C 
ATOM     24  C   UNL     1       4.145  -8.511  23.599  0.00  0.00    +0.000 C 
ATOM     25  C   UNL     1       3.431  -7.687  24.751  0.00  0.00    +0.000 C 
ATOM     26  C   UNL     1       3.999  -8.258  26.059  0.00  0.00    +0.000 C 
BRANCH  26  27
ATOM     27  C   UNL     1       3.044  -8.092  27.230  0.00  0.00    +0.000 C 
BRANCH  27  28
ATOM     28  C   UNL     1       3.654  -7.144  28.251  0.00  0.00    +0.000 C 
BRANCH  28  29
ATOM     29  C   UNL     1       3.633  -7.797  29.624  0.00  0.00    +0.000 A 
ATOM     30  C   UNL     1       2.416  -8.095  30.215  0.00  0.00    +0.000 A 
ATOM     31  C   UNL     1       2.510  -8.424  31.588  0.00  0.00    +0.000 A 
ATOM     32  C   UNL     1       3.626  -8.781  32.197  0.00  0.00    +0.000 A 
ATOM     33  C   UNL     1       4.793  -8.522  31.531  0.00  0.00    +0.000 A 
ATOM     34  C   UNL     1       4.779  -8.074  30.231  0.00  0.00    +0.000 A 
BRANCH  34  35
ATOM     35  C   UNL     1       6.091  -7.893  29.484  0.00  0.00    +0.000 C 
ATOM     36  O   UNL     1       6.558  -8.844  28.781  0.00  0.00    +0.000 OA
BRANCH  35  37
ATOM     37  O   UNL     1       6.793  -6.663  29.572  0.00  0.00    +0.000 OA
ATOM     38  H   UNL     1       6.457  -5.858  29.081  0.00  0.00    +0.000 HD
ENDBRANCH  35  37
ENDBRANCH  34  35
ENDBRANCH  28  29
ENDBRANCH  27  28
ENDBRANCH  26  27
ENDBRANCH   3  22
TORSDOF 7
ENDMDL
MODEL 3
REMARK VINA RESULT:    -7.060      3.451      5.995
REMARK INTER + INTRA:         -11.305
REMARK INTER:                  -9.618
REMARK INTRA:                  -1.687
REMARK UNBOUND:                -1.563
REMARK  Name = 
REMARK  8 active torsions:
REMARK  status: ('A' for Active; 'I' for Inactive)
REMARK    1  A    between atoms: C_1  and  C_2
REMARK    2  A    between atoms: C_13  and  C_14
REMARK    3  A    between atoms: N_16  and  C_17
REMARK    4  A    between atoms: C_21  and  C_22
REMARK    5  A    between atoms: C_22  and  C_23
REMARK    6  A    between atoms: C_23  and  C_24
REMARK    7  A    between atoms: C_29  and  C_30
REMARK    8  A    between atoms: C_30  and  O_32
REMARK                            x       y       z     vdW  Elec       q    Type
REMARK                         _______ _______ _______ _____ _____    ______ ____
ROOT
ATOM      1  C   UNL     1       6.070 -16.132  30.191  0.00  0.00    +0.000 C 
ATOM      2  O   UNL     1       5.795 -17.252  29.657  0.00  0.00    +0.000 OA
ATOM      3  N   UNL     1       5.890 -15.944  31.637  0.00  0.00    +0.000 N 
ATOM      4  H   UNL     1       5.544 -16.712  32.213  0.00  0.00    +0.000 HD
ENDROOT
BRANCH   1  17
ATOM      5  C   UNL     1       7.811 -11.366  22.849  0.00  0.00    +0.000 C 
ATOM      6  C   UNL     1       8.496 -12.659  22.400  0.00  0.00    +0.000 A 
ATOM      7  C   UNL     1       8.934 -12.797  21.089  0.00  0.00    +0.000 A 
ATOM      8  C   UNL     1       9.575 -13.957  20.657  0.00  0.00    +0.000 A 
ATOM      9  C   UNL     1       9.777 -14.987  21.534  0.00  0.00    +0.000 A 
ATOM     10  C   UNL     1       9.336 -14.909  22.881  0.00  0.00    +0.000 A 
ATOM     11  C   UNL     1       9.493 -15.943  23.880  0.00  0.00    +0.000 A 
ATOM     12  C   UNL     1       9.032 -15.749  25.137  0.00  0.00    +0.000 A 
ATOM     13  C   UNL     1       8.412 -14.504  25.479  0.00  0.00    +0.000 A 
ATOM     14  N   UNL     1       7.944 -14.294  26.857  0.00  0.00    +0.000 N 
ATOM     15  C   UNL     1       8.619 -14.134  28.150  0.00  0.00    +0.000 C 
ATOM     16  C   UNL     1       8.093 -15.139  29.153  0.00  0.00    +0.000 C 
ATOM     17  C   UNL     1       6.585 -14.987  29.333  0.00  0.00    +0.000 C 
ATOM     18  C   UNL     1       5.883 -15.027  27.977  0.00  0.00    +0.000 C 
ATOM     19  C   UNL     1       6.515 -14.031  27.019  0.00  0.00    +0.000 C 
ATOM     20  N   UNL     1       8.248 -13.530  24.585  0.00  0.00    +0.000 NA
ATOM     21  C   UNL     1       8.700 -13.739  23.320  0.00  0.00    +0.000 A 
ENDBRANCH   1  17
BRANCH   3  22
ATOM     22  C   UNL     1       6.204 -14.645  32.252  0.00  0.00    +0.000 C 
ATOM     23  C   UNL     1       5.058 -13.646  32.514  0.00  0.00    +0.000 C 
ATOM     24  C   UNL     1       4.395 -14.087  33.834  0.00  0.00    +0.000 C 
ATOM     25  C   UNL     1       5.474 -15.002  34.552  0.00  0.00    +0.000 C 
ATOM     26  C   UNL     1       6.743 -14.865  33.697  0.00  0.00    +0.000 C 
BRANCH  26  27
ATOM     27  C   UNL     1       7.651 -16.080  33.803  0.00  0.00    +0.000 C 
BRANCH  27  28
ATOM     28  C   UNL     1       6.890 -17.227  34.448  0.00  0.00    +0.000 C 
BRANCH  28  29
ATOM     29  C   UNL     1       6.888 -18.424  33.510  0.00  0.00    +0.000 A 
ATOM     30  C   UNL     1       8.093 -18.934  33.059  0.00  0.00    +0.000 A 
ATOM     31  C   UNL     1       7.964 -19.843  31.982  0.00  0.00    +0.000 A 
ATOM     32  C   UNL     1       6.841 -20.453  31.648  0.00  0.00    +0.000 A 
ATOM     33  C   UNL     1       5.690 -19.942  32.181  0.00  0.00    +0.000 A 
ATOM     34  C   UNL     1       5.731 -18.961  33.143  0.00  0.00    +0.000 A 
BRANCH  34  35
ATOM     35  C   UNL     1       4.441 -18.487  33.791  0.00  0.00    +0.000 C 
ATOM     36  O   UNL     1       3.745 -17.581  33.233  0.00  0.00    +0.000 OA
BRANCH  35  37
ATOM     37  O   UNL     1       4.012 -19.057  35.018  0.00  0.00    +0.000 OA
ATOM     38  H   UNL     1       4.001 -20.051  35.131  0.00  0.00    +0.000 HD
ENDBRANCH  35  37
ENDBRANCH  34  35
ENDBRANCH  28  29
ENDBRANCH  27  28
ENDBRANCH  26  27
ENDBRANCH   3  22
TORSDOF 7
ENDMDL
MODEL 4
REMARK VINA RESULT:    -6.602      3.618      4.870
REMARK INTER + INTRA:         -10.673
REMARK INTER:                  -9.092
REMARK INTRA:                  -1.582
REMARK UNBOUND:                -1.563
REMARK  Name = 
REMARK  8 active torsions:
REMARK  status: ('A' for Active; 'I' for Inactive)
REMARK    1  A    between atoms: C_1  and  C_2
REMARK    2  A    between atoms: C_13  and  C_14
REMARK    3  A    between atoms: N_16  and  C_17
REMARK    4  A    between atoms: C_21  and  C_22
REMARK    5  A    between atoms: C_22  and  C_23
REMARK    6  A    between atoms: C_23  and  C_24
REMARK    7  A    between atoms: C_29  and  C_30
REMARK    8  A    between atoms: C_30  and  O_32
REMARK                            x       y       z     vdW  Elec       q    Type
REMARK                         _______ _______ _______ _____ _____    ______ ____
ROOT
ATOM      1  C   UNL     1      10.153 -17.223  30.310  0.00  0.00    +0.000 C 
ATOM      2  O   UNL     1      10.480 -16.051  30.678  0.00  0.00    +0.000 OA
ATOM      3  N   UNL     1      10.091 -18.312  31.294  0.00  0.00    +0.000 N 
ATOM      4  H   UNL     1      10.309 -18.128  32.273  0.00  0.00    +0.000 HD
ENDROOT
BRANCH   1  17
ATOM      5  C   UNL     1       9.922 -16.025  21.468  0.00  0.00    +0.000 C 
ATOM      6  C   UNL     1       9.318 -14.673  21.857  0.00  0.00    +0.000 A 
ATOM      7  C   UNL     1       9.137 -13.688  20.895  0.00  0.00    +0.000 A 
ATOM      8  C   UNL     1       8.576 -12.453  21.217  0.00  0.00    +0.000 A 
ATOM      9  C   UNL     1       8.195 -12.197  22.505  0.00  0.00    +0.000 A 
ATOM     10  C   UNL     1       8.370 -13.160  23.534  0.00  0.00    +0.000 A 
ATOM     11  C   UNL     1       8.010 -12.983  24.923  0.00  0.00    +0.000 A 
ATOM     12  C   UNL     1       8.223 -13.980  25.812  0.00  0.00    +0.000 A 
ATOM     13  C   UNL     1       8.783 -15.220  25.365  0.00  0.00    +0.000 A 
ATOM     14  N   UNL     1       8.981 -16.306  26.336  0.00  0.00    +0.000 N 
ATOM     15  C   UNL     1       8.071 -17.171  27.097  0.00  0.00    +0.000 C 
ATOM     16  C   UNL     1       8.381 -17.097  28.577  0.00  0.00    +0.000 C 
ATOM     17  C   UNL     1       9.829 -17.498  28.849  0.00  0.00    +0.000 C 
ATOM     18  C   UNL     1      10.777 -16.688  27.968  0.00  0.00    +0.000 C 
ATOM     19  C   UNL     1      10.355 -16.773  26.511  0.00  0.00    +0.000 C 
ATOM     20  N   UNL     1       9.130 -15.418  24.094  0.00  0.00    +0.000 NA
ATOM     21  C   UNL     1       8.926 -14.406  23.209  0.00  0.00    +0.000 A 
ENDBRANCH   1  17
BRANCH   3  22
ATOM     22  C   UNL     1       9.717 -19.668  30.864  0.00  0.00    +0.000 C 
ATOM     23  C   UNL     1      10.665 -20.841  31.188  0.00  0.00    +0.000 C 
ATOM     24  C   UNL     1      10.371 -21.244  32.646  0.00  0.00    +0.000 C 
ATOM     25  C   UNL     1       8.934 -20.646  32.957  0.00  0.00    +0.000 C 
ATOM     26  C   UNL     1       8.424 -20.117  31.608  0.00  0.00    +0.000 C 
BRANCH  26  27
ATOM     27  C   UNL     1       7.420 -18.986  31.768  0.00  0.00    +0.000 C 
BRANCH  27  28
ATOM     28  C   UNL     1       6.983 -18.899  33.221  0.00  0.00    +0.000 C 
BRANCH  28  29
ATOM     29  C   UNL     1       6.757 -17.442  33.595  0.00  0.00    +0.000 A 
ATOM     30  C   UNL     1       7.804 -16.542  33.483  0.00  0.00    +0.000 A 
ATOM     31  C   UNL     1       7.566 -15.302  34.122  0.00  0.00    +0.000 A 
ATOM     32  C   UNL     1       6.374 -14.862  34.480  0.00  0.00    +0.000 A 
ATOM     33  C   UNL     1       5.366 -15.786  34.505  0.00  0.00    +0.000 A 
ATOM     34  C   UNL     1       5.560 -17.057  34.018  0.00  0.00    +0.000 A 
BRANCH  34  35
ATOM     35  C   UNL     1       4.393 -18.029  33.964  0.00  0.00    +0.000 C 
ATOM     36  O   UNL     1       3.607 -18.024  32.965  0.00  0.00    +0.000 OA
BRANCH  35  37
ATOM     37  O   UNL     1       4.180 -18.942  35.029  0.00  0.00    +0.000 OA
ATOM     38  H   UNL     1       3.354 -19.506  35.049  0.00  0.00    +0.000 HD
ENDBRANCH  35  37
ENDBRANCH  34  35
ENDBRANCH  28  29
ENDBRANCH  27  28
ENDBRANCH  26  27
ENDBRANCH   3  22
TORSDOF 7
ENDMDL
MODEL 5
REMARK VINA RESULT:    -6.505      4.337      6.497
REMARK INTER + INTRA:         -10.539
REMARK INTER:                  -8.977
REMARK INTRA:                  -1.563
REMARK UNBOUND:                -1.563
REMARK  Name = 
REMARK  8 active torsions:
REMARK  status: ('A' for Active; 'I' for Inactive)
REMARK    1  A    between atoms: C_1  and  C_2
REMARK    2  A    between atoms: C_13  and  C_14
REMARK    3  A    between atoms: N_16  and  C_17
REMARK    4  A    between atoms: C_21  and  C_22
REMARK    5  A    between atoms: C_22  and  C_23
REMARK    6  A    between atoms: C_23  and  C_24
REMARK    7  A    between atoms: C_29  and  C_30
REMARK    8  A    between atoms: C_30  and  O_32
REMARK                            x       y       z     vdW  Elec       q    Type
REMARK                         _______ _______ _______ _____ _____    ______ ____
ROOT
ATOM      1  C   UNL     1       6.874 -13.325  30.325  0.00  0.00    +0.000 C 
ATOM      2  O   UNL     1       6.700 -12.084  30.111  0.00  0.00    +0.000 OA
ATOM      3  N   UNL     1       6.814 -13.850  31.695  0.00  0.00    +0.000 N 
ATOM      4  H   UNL     1       6.631 -13.220  32.476  0.00  0.00    +0.000 HD
ENDROOT
BRANCH   1  17
ATOM      5  C   UNL     1      10.363 -16.285  22.662  0.00  0.00    +0.000 C 
ATOM      6  C   UNL     1       9.778 -14.982  22.110  0.00  0.00    +0.000 A 
ATOM      7  C   UNL     1      10.094 -14.566  20.824  0.00  0.00    +0.000 A 
ATOM      8  C   UNL     1       9.564 -13.392  20.291  0.00  0.00    +0.000 A 
ATOM      9  C   UNL     1       8.717 -12.627  21.045  0.00  0.00    +0.000 A 
ATOM     10  C   UNL     1       8.372 -12.995  22.372  0.00  0.00    +0.000 A 
ATOM     11  C   UNL     1       7.496 -12.251  23.250  0.00  0.00    +0.000 A 
ATOM     12  C   UNL     1       7.239 -12.707  24.498  0.00  0.00    +0.000 A 
ATOM     13  C   UNL     1       7.818 -13.943  24.933  0.00  0.00    +0.000 A 
ATOM     14  N   UNL     1       7.505 -14.442  26.280  0.00  0.00    +0.000 N 
ATOM     15  C   UNL     1       6.291 -14.967  26.916  0.00  0.00    +0.000 C 
ATOM     16  C   UNL     1       5.978 -14.198  28.181  0.00  0.00    +0.000 C 
ATOM     17  C   UNL     1       7.148 -14.264  29.161  0.00  0.00    +0.000 C 
ATOM     18  C   UNL     1       8.441 -13.838  28.469  0.00  0.00    +0.000 C 
ATOM     19  C   UNL     1       8.641 -14.619  27.182  0.00  0.00    +0.000 C 
ATOM     20  N   UNL     1       8.631 -14.652  24.153  0.00  0.00    +0.000 NA
ATOM     21  C   UNL     1       8.896 -14.180  22.906  0.00  0.00    +0.000 A 
ENDBRANCH   1  17
BRANCH   3  22
ATOM     22  C   UNL     1       7.022 -15.286  31.940  0.00  0.00    +0.000 C 
ATOM     23  C   UNL     1       8.073 -15.721  32.981  0.00  0.00    +0.000 C 
ATOM     24  C   UNL     1       7.390 -15.606  34.358  0.00  0.00    +0.000 C 
ATOM     25  C   UNL     1       5.834 -15.600  34.047  0.00  0.00    +0.000 C 
ATOM     26  C   UNL     1       5.728 -15.907  32.546  0.00  0.00    +0.000 C 
BRANCH  26  27
ATOM     27  C   UNL     1       4.461 -15.342  31.923  0.00  0.00    +0.000 C 
BRANCH  27  28
ATOM     28  C   UNL     1       3.486 -14.954  33.023  0.00  0.00    +0.000 C 
BRANCH  28  29
ATOM     29  C   UNL     1       2.890 -13.590  32.713  0.00  0.00    +0.000 A 
ATOM     30  C   UNL     1       3.702 -12.468  32.756  0.00  0.00    +0.000 A 
ATOM     31  C   UNL     1       2.991 -11.245  32.738  0.00  0.00    +0.000 A 
ATOM     32  C   UNL     1       1.734 -11.116  32.356  0.00  0.00    +0.000 A 
ATOM     33  C   UNL     1       1.003 -12.268  32.267  0.00  0.00    +0.000 A 
ATOM     34  C   UNL     1       1.603 -13.497  32.403  0.00  0.00    +0.000 A 
BRANCH  34  35
ATOM     35  C   UNL     1       0.785 -14.761  32.196  0.00  0.00    +0.000 C 
ATOM     36  O   UNL     1       0.691 -15.275  31.037  0.00  0.00    +0.000 OA
BRANCH  35  37
ATOM     37  O   UNL     1       0.125 -15.367  33.297  0.00  0.00    +0.000 OA
ATOM     38  H   UNL     1      -0.185 -14.807  34.065  0.00  0.00    +0.000 HD
ENDBRANCH  35  37
ENDBRANCH  34  35
ENDBRANCH  28  29
ENDBRANCH  27  28
ENDBRANCH  26  27
ENDBRANCH   3  22
TORSDOF 7
ENDMDL
