MODEL 1
REMARK VINA RESULT:    -4.852      0.000      0.000
REMARK INTER + INTRA:          -7.197
REMARK INTER:                  -6.731
REMARK INTRA:                  -0.466
REMARK UNBOUND:                -0.643
REMARK  Name = 
REMARK  9 active torsions:
REMARK  status: ('A' for Active; 'I' for Inactive)
REMARK    1  A    between atoms: C_1  and  O_2
REMARK    2  A    between atoms: O_2  and  C_3
REMARK    3  A    between atoms: C_6  and  C_7
REMARK    4  A    between atoms: C_7  and  C_9
REMARK    5  A    between atoms: C_10  and  C_11
REMARK    6  A    between atoms: C_17  and  O_18
REMARK    7  A    between atoms: O_18  and  C_19
REMARK    8  A    between atoms: C_20  and  O_21
REMARK    9  A    between atoms: O_21  and  C_22
REMARK                            x       y       z     vdW  Elec       q    Type
REMARK                         _______ _______ _______ _____ _____    ______ ____
ROOT
ATOM      1  C   UNL     1       3.934 -17.591  33.101  0.00  0.00    +0.000 A 
ATOM      2  C   UNL     1       2.846 -16.930  32.552  0.00  0.00    +0.000 A 
ATOM      3  C   UNL     1       3.021 -15.530  32.446  0.00  0.00    +0.000 A 
ATOM      4  C   UNL     1       3.928 -14.835  33.109  0.00  0.00    +0.000 A 
ATOM      5  C   UNL     1       4.940 -15.552  33.687  0.00  0.00    +0.000 A 
ATOM      6  C   UNL     1       4.906 -16.926  33.714  0.00  0.00    +0.000 A 
ENDROOT
BRANCH   1   8
ATOM      7  C   UNL     1       3.037 -19.747  33.871  0.00  0.00    +0.000 C 
ATOM      8  O   UNL     1       4.033 -19.005  33.183  0.00  0.00    +0.000 OA
ENDBRANCH   1   8
BRANCH   4   9
ATOM      9  C   UNL     1       3.853 -13.321  33.223  0.00  0.00    +0.000 C 
ATOM     10  O   UNL     1       3.197 -12.787  34.172  0.00  0.00    +0.000 OA
BRANCH   9  11
ATOM     11  C   UNL     1       4.562 -12.447  32.201  0.00  0.00    +0.000 C 
ATOM     12  C   UNL     1       4.361 -11.101  32.201  0.00  0.00    +0.000 C 
BRANCH  12  13
ATOM     13  C   UNL     1       5.070 -10.227  31.179  0.00  0.00    +0.000 A 
ATOM     14  C   UNL     1       4.874  -8.856  31.208  0.00  0.00    +0.000 A 
ATOM     15  C   UNL     1       5.338  -8.186  30.051  0.00  0.00    +0.000 A 
ATOM     16  C   UNL     1       6.191  -8.697  29.181  0.00  0.00    +0.000 A 
ATOM     17  C   UNL     1       6.392 -10.048  29.249  0.00  0.00    +0.000 A 
ATOM     18  C   UNL     1       5.863 -10.791  30.276  0.00  0.00    +0.000 A 
ENDBRANCH  12  13
ENDBRANCH   9  11
ENDBRANCH   4   9
BRANCH   5  19
ATOM     19  O   UNL     1       6.040 -14.868  34.267  0.00  0.00    +0.000 OA
ATOM     20  C   UNL     1       7.212 -14.632  33.502  0.00  0.00    +0.000 C 
ENDBRANCH   5  19
BRANCH   6  21
ATOM     21  O   UNL     1       5.921 -17.641  34.404  0.00  0.00    +0.000 OA
ATOM     22  C   UNL     1       7.051 -18.128  33.697  0.00  0.00    +0.000 C 
ENDBRANCH   6  21
TORSDOF 6
ENDMDL
MODEL 2
REMARK VINA RESULT:    -4.754      3.012      7.113
REMARK INTER + INTRA:          -7.064
REMARK INTER:                  -6.397
REMARK INTRA:                  -0.667
REMARK UNBOUND:                -0.643
REMARK  Name = 
REMARK  9 active torsions:
REMARK  status: ('A' for Active; 'I' for Inactive)
REMARK    1  A    between atoms: C_1  and  O_2
REMARK    2  A    between atoms: O_2  and  C_3
REMARK    3  A    between atoms: C_6  and  C_7
REMARK    4  A    between atoms: C_7  and  C_9
REMARK    5  A    between atoms: C_10  and  C_11
REMARK    6  A    between atoms: C_17  and  O_18
REMARK    7  A    between atoms: O_18  and  C_19
REMARK    8  A    between atoms: C_20  and  O_21
REMARK    9  A    between atoms: O_21  and  C_22
REMARK                            x       y       z     vdW  Elec       q    Type
REMARK                         _______ _______ _______ _____ _____    ______ ____
ROOT
ATOM      1  C   UNL     1       4.375 -11.457  28.327  0.00  0.00    +0.000 A 
ATOM      2  C   UNL     1       3.414 -12.401  28.655  0.00  0.00    +0.000 A 
ATOM      3  C   UNL     1       2.997 -12.350  30.006  0.00  0.00    +0.000 A 
ATOM      4  C   UNL     1       3.666 -11.749  30.974  0.00  0.00    +0.000 A 
ATOM      5  C   UNL     1       4.648 -10.880  30.586  0.00  0.00    +0.000 A 
ATOM      6  C   UNL     1       5.022 -10.778  29.268  0.00  0.00    +0.000 A 
ENDROOT
BRANCH   1   8
ATOM      7  C   UNL     1       5.462 -12.300  26.289  0.00  0.00    +0.000 C 
ATOM      8  O   UNL     1       4.844 -11.241  27.005  0.00  0.00    +0.000 OA
ENDBRANCH   1   8
BRANCH   4   9
ATOM      9  C   UNL     1       3.360 -12.010  32.440  0.00  0.00    +0.000 C 
ATOM     10  O   UNL     1       2.615 -11.208  33.086  0.00  0.00    +0.000 OA
BRANCH   9  11
ATOM     11  C   UNL     1       3.945 -13.230  33.133  0.00  0.00    +0.000 C 
ATOM     12  C   UNL     1       5.214 -13.631  32.848  0.00  0.00    +0.000 C 
BRANCH  12  13
ATOM     13  C   UNL     1       5.798 -14.852  33.541  0.00  0.00    +0.000 A 
ATOM     14  C   UNL     1       7.174 -14.998  33.608  0.00  0.00    +0.000 A 
ATOM     15  C   UNL     1       7.594 -16.290  34.006  0.00  0.00    +0.000 A 
ATOM     16  C   UNL     1       6.821 -17.177  34.606  0.00  0.00    +0.000 A 
ATOM     17  C   UNL     1       5.476 -16.939  34.563  0.00  0.00    +0.000 A 
ATOM     18  C   UNL     1       4.982 -15.756  34.069  0.00  0.00    +0.000 A 
ENDBRANCH  12  13
ENDBRANCH   9  11
ENDBRANCH   4   9
BRANCH   5  19
ATOM     19  O   UNL     1       5.292 -10.072  31.560  0.00  0.00    +0.000 OA
ATOM     20  C   UNL     1       4.776  -8.786  31.869  0.00  0.00    +0.000 C 
ENDBRANCH   5  19
BRANCH   6  21
ATOM     21  O   UNL     1       6.109  -9.939  28.907  0.00  0.00    +0.000 OA
ATOM     22  C   UNL     1       5.868  -8.600  28.501  0.00  0.00    +0.000 C 
ENDBRANCH   6  21
TORSDOF 6
ENDMDL
MODEL 3
REMARK VINA RESULT:    -4.722      1.344      2.679
REMARK INTER + INTRA:          -7.022
REMARK INTER:                  -6.379
REMARK INTRA:                  -0.643
REMARK UNBOUND:                -0.643
REMARK  Name = 
REMARK  9 active torsions:
REMARK  status: ('A' for Active; 'I' for Inactive)
REMARK    1  A    between atoms: C_1  and  O_2
REMARK    2  A    between atoms: O_2  and  C_3
REMARK    3  A    between atoms: C_6  and  C_7
REMARK    4  A    between atoms: C_7  and  C_9
REMARK    5  A    between atoms: C_10  and  C_11
REMARK    6  A    between atoms: C_17  and  O_18
REMARK    7  A    between atoms: O_18  and  C_19
REMARK    8  A    between atoms: C_20  and  O_21
REMARK    9  A    between atoms: O_21  and  C_22
REMARK                            x       y       z     vdW  Elec       q    Type
REMARK                         _______ _______ _______ _____ _____    ______ ____
ROOT
ATOM      1  C   UNL     1       5.083 -16.724  33.825  0.00  0.00    +0.000 A 
ATOM      2  C   UNL     1       5.691 -15.680  34.507  0.00  0.00    +0.000 A 
ATOM      3  C   UNL     1       4.998 -14.450  34.406  0.00  0.00    +0.000 A 
ATOM      4  C   UNL     1       4.086 -14.177  33.491  0.00  0.00    +0.000 A 
ATOM      5  C   UNL     1       3.574 -15.244  32.805  0.00  0.00    +0.000 A 
ATOM      6  C   UNL     1       4.111 -16.500  32.948  0.00  0.00    +0.000 A 
ENDROOT
BRANCH   1   8
ATOM      7  C   UNL     1       6.857 -18.397  33.512  0.00  0.00    +0.000 C 
ATOM      8  O   UNL     1       5.530 -18.070  33.893  0.00  0.00    +0.000 OA
ENDBRANCH   1   8
BRANCH   4   9
ATOM      9  C   UNL     1       3.628 -12.754  33.216  0.00  0.00    +0.000 C 
ATOM     10  O   UNL     1       2.757 -12.210  33.965  0.00  0.00    +0.000 OA
BRANCH   9  11
ATOM     11  C   UNL     1       4.212 -11.981  32.044  0.00  0.00    +0.000 C 
ATOM     12  C   UNL     1       4.356 -10.630  32.124  0.00  0.00    +0.000 C 
BRANCH  12  13
ATOM     13  C   UNL     1       4.940  -9.858  30.952  0.00  0.00    +0.000 A 
ATOM     14  C   UNL     1       5.749 -10.518  30.042  0.00  0.00    +0.000 A 
ATOM     15  C   UNL     1       6.462  -9.654  29.177  0.00  0.00    +0.000 A 
ATOM     16  C   UNL     1       6.158  -8.386  28.967  0.00  0.00    +0.000 A 
ATOM     17  C   UNL     1       5.300  -7.811  29.863  0.00  0.00    +0.000 A 
ATOM     18  C   UNL     1       4.665  -8.566  30.820  0.00  0.00    +0.000 A 
ENDBRANCH  12  13
ENDBRANCH   9  11
ENDBRANCH   4   9
BRANCH   5  19
ATOM     19  O   UNL     1       2.472 -15.051  31.931  0.00  0.00    +0.000 OA
ATOM     20  C   UNL     1       1.155 -15.339  32.374  0.00  0.00    +0.000 C 
ENDBRANCH   5  19
BRANCH   6  21
ATOM     21  O   UNL     1       3.623 -17.570  32.152  0.00  0.00    +0.000 OA
ATOM     22  C   UNL     1       4.142 -17.777  30.847  0.00  0.00    +0.000 C 
ENDBRANCH   6  21
TORSDOF 6
ENDMDL
MODEL 4
REMARK VINA RESULT:    -4.680      2.873      7.913
REMARK INTER + INTRA:          -6.964
REMARK INTER:                  -6.514
REMARK INTRA:                  -0.450
REMARK UNBOUND:                -0.643
REMARK  Name = 
REMARK  9 active torsions:
REMARK  status: ('A' for Active; 'I' for Inactive)
REMARK    1  A    between atoms: C_1  and  O_2
REMARK    2  A    between atoms: O_2  and  C_3
REMARK    3  A    between atoms: C_6  and  C_7
REMARK    4  A    between atoms: C_7  and  C_9
REMARK    5  A    between atoms: C_10  and  C_11
REMARK    6  A    between atoms: C_17  and  O_18
REMARK    7  A    between atoms: O_18  and  C_19
REMARK    8  A    between atoms: C_20  and  O_21
REMARK    9  A    between atoms: O_21  and  C_22
REMARK                            x       y       z     vdW  Elec       q    Type
REMARK                         _______ _______ _______ _____ _____    ______ ____
ROOT
ATOM      1  C   UNL     1       4.478  -8.805  29.599  0.00  0.00    +0.000 A 
ATOM      2  C   UNL     1       4.624  -8.550  30.954  0.00  0.00    +0.000 A 
ATOM      3  C   UNL     1       4.552  -9.706  31.766  0.00  0.00    +0.000 A 
ATOM      4  C   UNL     1       4.044 -10.863  31.380  0.00  0.00    +0.000 A 
ATOM      5  C   UNL     1       3.861 -11.027  30.035  0.00  0.00    +0.000 A 
ATOM      6  C   UNL     1       4.038  -9.980  29.164  0.00  0.00    +0.000 A 
ENDROOT
BRANCH   1   8
ATOM      7  C   UNL     1       3.867  -6.629  28.631  0.00  0.00    +0.000 C 
ATOM      8  O   UNL     1       4.643  -7.817  28.593  0.00  0.00    +0.000 OA
ENDBRANCH   1   8
BRANCH   4   9
ATOM      9  C   UNL     1       3.682 -11.952  32.377  0.00  0.00    +0.000 C 
ATOM     10  O   UNL     1       2.567 -11.911  32.986  0.00  0.00    +0.000 OA
BRANCH   9  11
ATOM     11  C   UNL     1       4.655 -13.088  32.646  0.00  0.00    +0.000 C 
ATOM     12  C   UNL     1       4.348 -14.043  33.565  0.00  0.00    +0.000 C 
BRANCH  12  13
ATOM     13  C   UNL     1       5.321 -15.180  33.834  0.00  0.00    +0.000 A 
ATOM     14  C   UNL     1       4.829 -16.419  34.211  0.00  0.00    +0.000 A 
ATOM     15  C   UNL     1       5.817 -17.300  34.712  0.00  0.00    +0.000 A 
ATOM     16  C   UNL     1       7.116 -17.152  34.525  0.00  0.00    +0.000 A 
ATOM     17  C   UNL     1       7.532 -15.926  34.087  0.00  0.00    +0.000 A 
ATOM     18  C   UNL     1       6.625 -14.967  33.703  0.00  0.00    +0.000 A 
ENDBRANCH  12  13
ENDBRANCH   9  11
ENDBRANCH   4   9
BRANCH   5  19
ATOM     19  O   UNL     1       3.481 -12.299  29.530  0.00  0.00    +0.000 OA
ATOM     20  C   UNL     1       2.116 -12.577  29.259  0.00  0.00    +0.000 C 
ENDBRANCH   5  19
BRANCH   6  21
ATOM     21  O   UNL     1       3.748 -10.154  27.785  0.00  0.00    +0.000 OA
ATOM     22  C   UNL     1       4.748 -10.648  26.906  0.00  0.00    +0.000 C 
ENDBRANCH   6  21
TORSDOF 6
ENDMDL
MODEL 5
REMARK VINA RESULT:    -4.665      4.475      8.153
REMARK INTER + INTRA:          -6.944
REMARK INTER:                  -6.323
REMARK INTRA:                  -0.621
REMARK UNBOUND:                -0.643
REMARK  Name = 
REMARK  9 active torsions:
REMARK  status: ('A' for Active; 'I' for Inactive)
REMARK    1  A    between atoms: C_1  and  O_2
REMARK    2  A    between atoms: O_2  and  C_3
REMARK    3  A    between atoms: C_6  and  C_7
REMARK    4  A    between atoms: C_7  and  C_9
REMARK    5  A    between atoms: C_10  and  C_11
REMARK    6  A    between atoms: C_17  and  O_18
REMARK    7  A    between atoms: O_18  and  C_19
REMARK    8  A    between atoms: C_20  and  O_21
REMARK    9  A    between atoms: O_21  and  C_22
REMARK                            x       y       z     vdW  Elec       q    Type
REMARK                         _______ _______ _______ _____ _____    ______ ____
ROOT
ATOM      1  C   UNL     1       7.184 -13.044  25.721  0.00  0.00    +0.000 A 
ATOM      2  C   UNL     1       8.266 -13.373  26.523  0.00  0.00    +0.000 A 
ATOM      3  C   UNL     1       7.965 -13.408  27.905  0.00  0.00    +0.000 A 
ATOM      4  C   UNL     1       6.903 -12.846  28.455  0.00  0.00    +0.000 A 
ATOM      5  C   UNL     1       5.898 -12.482  27.602  0.00  0.00    +0.000 A 
ATOM      6  C   UNL     1       6.069 -12.544  26.240  0.00  0.00    +0.000 A 
ENDROOT
BRANCH   1   8
ATOM      7  C   UNL     1       8.239 -12.373  23.604  0.00  0.00    +0.000 C 
ATOM      8  O   UNL     1       7.222 -13.076  24.302  0.00  0.00    +0.000 OA
ENDBRANCH   1   8
BRANCH   4   9
ATOM      9  C   UNL     1       6.802 -12.619  29.955  0.00  0.00    +0.000 C 
ATOM     10  O   UNL     1       6.830 -11.437  30.421  0.00  0.00    +0.000 OA
BRANCH   9  11
ATOM     11  C   UNL     1       6.670 -13.805  30.895  0.00  0.00    +0.000 C 
ATOM     12  C   UNL     1       6.515 -13.600  32.232  0.00  0.00    +0.000 C 
BRANCH  12  13
ATOM     13  C   UNL     1       6.383 -14.787  33.172  0.00  0.00    +0.000 A 
ATOM     14  C   UNL     1       7.513 -15.516  33.505  0.00  0.00    +0.000 A 
ATOM     15  C   UNL     1       7.232 -16.751  34.137  0.00  0.00    +0.000 A 
ATOM     16  C   UNL     1       6.078 -17.059  34.699  0.00  0.00    +0.000 A 
ATOM     17  C   UNL     1       5.015 -16.259  34.384  0.00  0.00    +0.000 A 
ATOM     18  C   UNL     1       5.190 -15.105  33.659  0.00  0.00    +0.000 A 
ENDBRANCH  12  13
ENDBRANCH   9  11
ENDBRANCH   4   9
BRANCH   5  19
ATOM     19  O   UNL     1       4.659 -12.032  28.131  0.00  0.00    +0.000 OA
ATOM     20  C   UNL     1       3.609 -12.958  28.365  0.00  0.00    +0.000 C 
ENDBRANCH   5  19
BRANCH   6  21
ATOM     21  O   UNL     1       5.045 -12.069  25.379  0.00  0.00    +0.000 OA
ATOM     22  C   UNL     1       4.954 -10.684  25.081  0.00  0.00    +0.000 C 
ENDBRANCH   6  21
TORSDOF 6
ENDMDL
