MODEL 1
REMARK VINA RESULT:    -5.385      0.000      0.000
REMARK INTER + INTRA:          10.675
REMARK INTER:                  -5.869
REMARK INTRA:                  16.543
REMARK UNBOUND:                16.532
REMARK  Name = 
REMARK  2 active torsions:
REMARK  status: ('A' for Active; 'I' for Inactive)
REMARK    1  A    between atoms: C_4  and  C_7
REMARK    2  A    between atoms: C_12  and  O_18
REMARK                            x       y       z     vdW  Elec       q    Type
REMARK                         _______ _______ _______ _____ _____    ______ ____
ROOT
ATOM      1  C   UNL     1       5.832 -13.206  32.063  0.00  0.00    +0.000 A 
ATOM      2  C   UNL     1       4.415 -13.000  32.216  0.00  0.00    +0.000 A 
ATOM      3  C   UNL     1       3.599 -14.024  32.815  0.00  0.00    +0.000 A 
ATOM      4  O   UNL     1       2.348 -13.841  32.950  0.00  0.00    +0.000 OA
ATOM      5  C   UNL     1       4.233 -15.323  33.284  0.00  0.00    +0.000 A 
ATOM      6  C   UNL     1       3.619 -16.527  32.981  0.00  0.00    +0.000 A 
ATOM      7  C   UNL     1       4.129 -17.629  33.708  0.00  0.00    +0.000 A 
ATOM      8  C   UNL     1       5.290 -17.639  34.337  0.00  0.00    +0.000 A 
ATOM      9  C   UNL     1       5.878 -16.423  34.546  0.00  0.00    +0.000 A 
ATOM     10  C   UNL     1       5.365 -15.283  33.978  0.00  0.00    +0.000 A 
ATOM     11  O   UNL     1       6.594 -12.249  31.504  0.00  0.00    +0.000 OA
ENDROOT
BRANCH   1  15
ATOM     12  C   UNL     1       7.816 -16.786  33.281  0.00  0.00    +0.000 A 
ATOM     13  C   UNL     1       7.938 -15.657  34.073  0.00  0.00    +0.000 A 
ATOM     14  C   UNL     1       7.073 -14.601  33.702  0.00  0.00    +0.000 A 
ATOM     15  C   UNL     1       6.466 -14.505  32.533  0.00  0.00    +0.000 A 
ATOM     16  C   UNL     1       6.439 -15.638  31.767  0.00  0.00    +0.000 A 
ATOM     17  C   UNL     1       7.154 -16.753  32.131  0.00  0.00    +0.000 A 
ENDBRANCH   1  15
BRANCH   6  18
ATOM     18  O   UNL     1       2.572 -16.645  32.029  0.00  0.00    +0.000 OA
ATOM     19  H   UNL     1       1.664 -16.947  32.320  0.00  0.00    +0.000 HD
ENDBRANCH   6  18
TORSDOF 2
ENDMDL
MODEL 2
REMARK VINA RESULT:    -5.151      2.519      4.893
REMARK INTER + INTRA:          10.929
REMARK INTER:                  -5.612
REMARK INTRA:                  16.541
REMARK UNBOUND:                16.532
REMARK  Name = 
REMARK  2 active torsions:
REMARK  status: ('A' for Active; 'I' for Inactive)
REMARK    1  A    between atoms: C_4  and  C_7
REMARK    2  A    between atoms: C_12  and  O_18
REMARK                            x       y       z     vdW  Elec       q    Type
REMARK                         _______ _______ _______ _____ _____    ______ ____
ROOT
ATOM      1  C   UNL     1       4.358 -18.901  33.442  0.00  0.00    +0.000 A 
ATOM      2  C   UNL     1       5.352 -19.891  33.119  0.00  0.00    +0.000 A 
ATOM      3  C   UNL     1       6.723 -19.498  32.919  0.00  0.00    +0.000 A 
ATOM      4  O   UNL     1       7.600 -20.373  32.634  0.00  0.00    +0.000 OA
ATOM      5  C   UNL     1       7.121 -18.036  33.047  0.00  0.00    +0.000 A 
ATOM      6  C   UNL     1       7.952 -17.472  32.095  0.00  0.00    +0.000 A 
ATOM      7  C   UNL     1       8.484 -16.215  32.470  0.00  0.00    +0.000 A 
ATOM      8  C   UNL     1       7.996 -15.453  33.431  0.00  0.00    +0.000 A 
ATOM      9  C   UNL     1       7.127 -16.051  34.300  0.00  0.00    +0.000 A 
ATOM     10  C   UNL     1       6.664 -17.324  34.072  0.00  0.00    +0.000 A 
ATOM     11  O   UNL     1       3.078 -19.269  33.629  0.00  0.00    +0.000 OA
ENDROOT
BRANCH   1  15
ATOM     12  C   UNL     1       5.245 -14.740  33.822  0.00  0.00    +0.000 A 
ATOM     13  C   UNL     1       5.057 -15.487  34.973  0.00  0.00    +0.000 A 
ATOM     14  C   UNL     1       4.988 -16.882  34.745  0.00  0.00    +0.000 A 
ATOM     15  C   UNL     1       4.756 -17.439  33.571  0.00  0.00    +0.000 A 
ATOM     16  C   UNL     1       4.892 -16.631  32.477  0.00  0.00    +0.000 A 
ATOM     17  C   UNL     1       5.091 -15.278  32.618  0.00  0.00    +0.000 A 
ENDBRANCH   1  15
BRANCH   6  18
ATOM     18  O   UNL     1       8.247 -18.098  30.854  0.00  0.00    +0.000 OA
ATOM     19  H   UNL     1       8.161 -19.091  30.763  0.00  0.00    +0.000 HD
ENDBRANCH   6  18
TORSDOF 2
ENDMDL
MODEL 3
REMARK VINA RESULT:    -5.027      1.915      3.786
REMARK INTER + INTRA:          11.064
REMARK INTER:                  -5.472
REMARK INTRA:                  16.536
REMARK UNBOUND:                16.532
REMARK  Name = 
REMARK  2 active torsions:
REMARK  status: ('A' for Active; 'I' for Inactive)
REMARK    1  A    between atoms: C_4  and  C_7
REMARK    2  A    between atoms: C_12  and  O_18
REMARK                            x       y       z     vdW  Elec       q    Type
REMARK                         _______ _______ _______ _____ _____    ______ ____
ROOT
ATOM      1  C   UNL     1       3.009 -16.757  32.114  0.00  0.00    +0.000 A 
ATOM      2  C   UNL     1       3.012 -17.934  32.944  0.00  0.00    +0.000 A 
ATOM      3  C   UNL     1       4.082 -18.150  33.883  0.00  0.00    +0.000 A 
ATOM      4  O   UNL     1       4.084 -19.189  34.615  0.00  0.00    +0.000 OA
ATOM      5  C   UNL     1       5.209 -17.137  33.998  0.00  0.00    +0.000 A 
ATOM      6  C   UNL     1       6.519 -17.581  34.057  0.00  0.00    +0.000 A 
ATOM      7  C   UNL     1       7.444 -16.586  34.454  0.00  0.00    +0.000 A 
ATOM      8  C   UNL     1       7.206 -15.288  34.427  0.00  0.00    +0.000 A 
ATOM      9  C   UNL     1       5.897 -14.913  34.300  0.00  0.00    +0.000 A 
ATOM     10  C   UNL     1       4.918 -15.841  34.041  0.00  0.00    +0.000 A 
ATOM     11  O   UNL     1       2.009 -16.555  31.237  0.00  0.00    +0.000 OA
ENDROOT
BRANCH   1  15
ATOM     12  C   UNL     1       6.088 -13.800  32.245  0.00  0.00    +0.000 A 
ATOM     13  C   UNL     1       4.867 -13.514  32.832  0.00  0.00    +0.000 A 
ATOM     14  C   UNL     1       4.001 -14.630  32.927  0.00  0.00    +0.000 A 
ATOM     15  C   UNL     1       4.135 -15.743  32.229  0.00  0.00    +0.000 A 
ATOM     16  C   UNL     1       5.343 -15.935  31.617  0.00  0.00    +0.000 A 
ATOM     17  C   UNL     1       6.290 -14.940  31.595  0.00  0.00    +0.000 A 
ENDBRANCH   1  15
BRANCH   6  18
ATOM     18  O   UNL     1       6.900 -18.914  33.747  0.00  0.00    +0.000 OA
ATOM     19  H   UNL     1       6.331 -19.467  33.138  0.00  0.00    +0.000 HD
ENDBRANCH   6  18
TORSDOF 2
ENDMDL
MODEL 4
REMARK VINA RESULT:    -4.996      1.769      3.153
REMARK INTER + INTRA:          11.098
REMARK INTER:                  -5.428
REMARK INTRA:                  16.526
REMARK UNBOUND:                16.532
REMARK  Name = 
REMARK  2 active torsions:
REMARK  status: ('A' for Active; 'I' for Inactive)
REMARK    1  A    between atoms: C_4  and  C_7
REMARK    2  A    between atoms: C_12  and  O_18
REMARK                            x       y       z     vdW  Elec       q    Type
REMARK                         _______ _______ _______ _____ _____    ______ ____
ROOT
ATOM      1  C   UNL     1       7.706 -16.269  30.783  0.00  0.00    +0.000 A 
ATOM      2  C   UNL     1       7.537 -14.961  30.204  0.00  0.00    +0.000 A 
ATOM      3  C   UNL     1       6.733 -13.974  30.878  0.00  0.00    +0.000 A 
ATOM      4  O   UNL     1       6.585 -12.819  30.367  0.00  0.00    +0.000 OA
ATOM      5  C   UNL     1       6.063 -14.313  32.199  0.00  0.00    +0.000 A 
ATOM      6  C   UNL     1       4.741 -13.954  32.402  0.00  0.00    +0.000 A 
ATOM      7  C   UNL     1       4.320 -14.053  33.750  0.00  0.00    +0.000 A 
ATOM      8  C   UNL     1       4.949 -14.745  34.682  0.00  0.00    +0.000 A 
ATOM      9  C   UNL     1       6.229 -15.128  34.394  0.00  0.00    +0.000 A 
ATOM     10  C   UNL     1       6.756 -14.947  33.138  0.00  0.00    +0.000 A 
ATOM     11  O   UNL     1       8.456 -17.191  30.153  0.00  0.00    +0.000 OA
ENDROOT
BRANCH   1  15
ATOM     12  C   UNL     1       5.888 -17.446  34.464  0.00  0.00    +0.000 A 
ATOM     13  C   UNL     1       7.241 -17.150  34.456  0.00  0.00    +0.000 A 
ATOM     14  C   UNL     1       7.692 -16.565  33.249  0.00  0.00    +0.000 A 
ATOM     15  C   UNL     1       7.035 -16.608  32.104  0.00  0.00    +0.000 A 
ATOM     16  C   UNL     1       5.719 -16.973  32.172  0.00  0.00    +0.000 A 
ATOM     17  C   UNL     1       5.173 -17.432  33.346  0.00  0.00    +0.000 A 
ENDBRANCH   1  15
BRANCH   6  18
ATOM     18  O   UNL     1       3.885 -13.524  31.353  0.00  0.00    +0.000 OA
ATOM     19  H   UNL     1       4.157 -13.656  30.400  0.00  0.00    +0.000 HD
ENDBRANCH   6  18
TORSDOF 2
ENDMDL
MODEL 5
REMARK VINA RESULT:    -4.977      1.965      3.822
REMARK INTER + INTRA:          11.119
REMARK INTER:                  -5.413
REMARK INTRA:                  16.532
REMARK UNBOUND:                16.532
REMARK  Name = 
REMARK  2 active torsions:
REMARK  status: ('A' for Active; 'I' for Inactive)
REMARK    1  A    between atoms: C_4  and  C_7
REMARK    2  A    between atoms: C_12  and  O_18
REMARK                            x       y       z     vdW  Elec       q    Type
REMARK                         _______ _______ _______ _____ _____    ______ ____
ROOT
ATOM      1  C   UNL     1       6.145 -13.540  31.775  0.00  0.00    +0.000 A 
ATOM      2  C   UNL     1       6.733 -13.602  30.461  0.00  0.00    +0.000 A 
ATOM      3  C   UNL     1       7.441 -14.785  30.045  0.00  0.00    +0.000 A 
ATOM      4  O   UNL     1       7.959 -14.840  28.886  0.00  0.00    +0.000 OA
ATOM      5  C   UNL     1       7.567 -15.968  30.991  0.00  0.00    +0.000 A 
ATOM      6  C   UNL     1       8.793 -16.597  31.132  0.00  0.00    +0.000 A 
ATOM      7  C   UNL     1       8.724 -17.844  31.799  0.00  0.00    +0.000 A 
ATOM      8  C   UNL     1       7.708 -18.239  32.543  0.00  0.00    +0.000 A 
ATOM      9  C   UNL     1       6.544 -17.535  32.408  0.00  0.00    +0.000 A 
ATOM     10  C   UNL     1       6.500 -16.379  31.667  0.00  0.00    +0.000 A 
ATOM     11  O   UNL     1       5.484 -12.435  32.164  0.00  0.00    +0.000 OA
ENDROOT
BRANCH   1  15
ATOM     12  C   UNL     1       6.410 -16.727  34.605  0.00  0.00    +0.000 A 
ATOM     13  C   UNL     1       5.209 -16.522  33.945  0.00  0.00    +0.000 A 
ATOM     14  C   UNL     1       5.292 -15.594  32.881  0.00  0.00    +0.000 A 
ATOM     15  C   UNL     1       6.271 -14.723  32.721  0.00  0.00    +0.000 A 
ATOM     16  C   UNL     1       7.405 -14.942  33.452  0.00  0.00    +0.000 A 
ATOM     17  C   UNL     1       7.445 -15.916  34.420  0.00  0.00    +0.000 A 
ENDBRANCH   1  15
BRANCH   6  18
ATOM     18  O   UNL     1      10.009 -16.043  30.650  0.00  0.00    +0.000 OA
ATOM     19  H   UNL     1      10.130 -15.050  30.627  0.00  0.00    +0.000 HD
ENDBRANCH   6  18
TORSDOF 2
ENDMDL
