MODEL 1
REMARK VINA RESULT:    -5.179      0.000      0.000
REMARK INTER + INTRA:          -7.014
REMARK INTER:                  -6.560
REMARK INTRA:                  -0.455
REMARK UNBOUND:                -0.473
REMARK  Name = 
REMARK  7 active torsions:
REMARK  status: ('A' for Active; 'I' for Inactive)
REMARK    1  A    between atoms: C_1  and  O_2
REMARK    2  A    between atoms: O_2  and  C_3
REMARK    3  A    between atoms: C_5  and  C_6
REMARK    4  A    between atoms: C_7  and  C_8
REMARK    5  A    between atoms: C_11  and  O_12
REMARK    6  A    between atoms: C_16  and  O_17
REMARK    7  A    between atoms: O_17  and  C_18
REMARK                            x       y       z     vdW  Elec       q    Type
REMARK                         _______ _______ _______ _____ _____    ______ ____
ROOT
ATOM      1  C   UNL     1       5.197 -15.982  33.352  0.00  0.00    +0.000 A 
ATOM      2  C   UNL     1       4.844 -14.658  33.147  0.00  0.00    +0.000 A 
ATOM      3  C   UNL     1       5.832 -13.898  32.477  0.00  0.00    +0.000 A 
ATOM      4  C   UNL     1       7.100 -14.251  32.365  0.00  0.00    +0.000 A 
ATOM      5  C   UNL     1       7.395 -15.556  32.648  0.00  0.00    +0.000 A 
ATOM      6  C   UNL     1       6.447 -16.395  33.181  0.00  0.00    +0.000 A 
ENDROOT
BRANCH   1   8
ATOM      7  C   UNL     1       4.534 -18.105  34.401  0.00  0.00    +0.000 C 
ATOM      8  O   UNL     1       4.189 -16.828  33.885  0.00  0.00    +0.000 OA
ENDBRANCH   1   8
BRANCH   3   9
ATOM      9  C   UNL     1       5.405 -12.584  31.844  0.00  0.00    +0.000 C 
ATOM     10  C   UNL     1       6.343 -11.675  31.465  0.00  0.00    +0.000 C 
BRANCH  10  11
ATOM     11  C   UNL     1       5.916 -10.360  30.832  0.00  0.00    +0.000 A 
ATOM     12  C   UNL     1       5.068  -9.479  31.483  0.00  0.00    +0.000 A 
ATOM     13  C   UNL     1       4.588  -8.433  30.660  0.00  0.00    +0.000 A 
ATOM     14  C   UNL     1       5.130  -8.074  29.511  0.00  0.00    +0.000 A 
ATOM     15  C   UNL     1       6.011  -8.959  28.953  0.00  0.00    +0.000 A 
ATOM     16  C   UNL     1       6.428 -10.072  29.642  0.00  0.00    +0.000 A 
BRANCH  14  17
ATOM     17  O   UNL     1       4.816  -6.837  28.889  0.00  0.00    +0.000 OA
ATOM     18  H   UNL     1       3.866  -6.618  28.664  0.00  0.00    +0.000 HD
ENDBRANCH  14  17
ENDBRANCH  10  11
ENDBRANCH   3   9
BRANCH   5  19
ATOM     19  O   UNL     1       8.700 -16.051  32.386  0.00  0.00    +0.000 OA
ATOM     20  C   UNL     1       9.091 -16.353  31.055  0.00  0.00    +0.000 C 
ENDBRANCH   5  19
TORSDOF 5
ENDMDL
MODEL 2
REMARK VINA RESULT:    -5.166      0.662      2.647
REMARK INTER + INTRA:          -6.998
REMARK INTER:                  -6.553
REMARK INTRA:                  -0.444
REMARK UNBOUND:                -0.473
REMARK  Name = 
REMARK  7 active torsions:
REMARK  status: ('A' for Active; 'I' for Inactive)
REMARK    1  A    between atoms: C_1  and  O_2
REMARK    2  A    between atoms: O_2  and  C_3
REMARK    3  A    between atoms: C_5  and  C_6
REMARK    4  A    between atoms: C_7  and  C_8
REMARK    5  A    between atoms: C_11  and  O_12
REMARK    6  A    between atoms: C_16  and  O_17
REMARK    7  A    between atoms: O_17  and  C_18
REMARK                            x       y       z     vdW  Elec       q    Type
REMARK                         _______ _______ _______ _____ _____    ______ ____
ROOT
ATOM      1  C   UNL     1       7.682 -15.668  32.223  0.00  0.00    +0.000 A 
ATOM      2  C   UNL     1       7.156 -14.576  31.550  0.00  0.00    +0.000 A 
ATOM      3  C   UNL     1       6.046 -13.984  32.197  0.00  0.00    +0.000 A 
ATOM      4  C   UNL     1       5.324 -14.571  33.134  0.00  0.00    +0.000 A 
ATOM      5  C   UNL     1       5.868 -15.685  33.712  0.00  0.00    +0.000 A 
ATOM      6  C   UNL     1       7.020 -16.246  33.219  0.00  0.00    +0.000 A 
ENDROOT
BRANCH   1   8
ATOM      7  C   UNL     1       8.882 -17.504  31.113  0.00  0.00    +0.000 C 
ATOM      8  O   UNL     1       8.885 -16.211  31.700  0.00  0.00    +0.000 OA
ENDBRANCH   1   8
BRANCH   3   9
ATOM      9  C   UNL     1       5.658 -12.573  31.786  0.00  0.00    +0.000 C 
ATOM     10  C   UNL     1       6.412 -11.898  30.877  0.00  0.00    +0.000 C 
BRANCH  10  11
ATOM     11  C   UNL     1       6.024 -10.486  30.467  0.00  0.00    +0.000 A 
ATOM     12  C   UNL     1       5.259  -9.672  31.286  0.00  0.00    +0.000 A 
ATOM     13  C   UNL     1       4.794  -8.496  30.652  0.00  0.00    +0.000 A 
ATOM     14  C   UNL     1       5.296  -7.997  29.538  0.00  0.00    +0.000 A 
ATOM     15  C   UNL     1       6.099  -8.829  28.807  0.00  0.00    +0.000 A 
ATOM     16  C   UNL     1       6.490 -10.049  29.303  0.00  0.00    +0.000 A 
BRANCH  14  17
ATOM     17  O   UNL     1       5.017  -6.669  29.120  0.00  0.00    +0.000 OA
ATOM     18  H   UNL     1       5.416  -6.317  28.273  0.00  0.00    +0.000 HD
ENDBRANCH  14  17
ENDBRANCH  10  11
ENDBRANCH   3   9
BRANCH   5  19
ATOM     19  O   UNL     1       5.232 -16.270  34.839  0.00  0.00    +0.000 OA
ATOM     20  C   UNL     1       4.932 -17.658  34.845  0.00  0.00    +0.000 C 
ENDBRANCH   5  19
TORSDOF 5
ENDMDL
MODEL 3
REMARK VINA RESULT:    -4.868      1.656      2.152
REMARK INTER + INTRA:          -6.621
REMARK INTER:                  -6.149
REMARK INTRA:                  -0.473
REMARK UNBOUND:                -0.473
REMARK  Name = 
REMARK  7 active torsions:
REMARK  status: ('A' for Active; 'I' for Inactive)
REMARK    1  A    between atoms: C_1  and  O_2
REMARK    2  A    between atoms: O_2  and  C_3
REMARK    3  A    between atoms: C_5  and  C_6
REMARK    4  A    between atoms: C_7  and  C_8
REMARK    5  A    between atoms: C_11  and  O_12
REMARK    6  A    between atoms: C_16  and  O_17
REMARK    7  A    between atoms: O_17  and  C_18
REMARK                            x       y       z     vdW  Elec       q    Type
REMARK                         _______ _______ _______ _____ _____    ______ ____
ROOT
ATOM      1  C   UNL     1       3.129 -16.046  32.669  0.00  0.00    +0.000 A 
ATOM      2  C   UNL     1       3.020 -14.677  32.485  0.00  0.00    +0.000 A 
ATOM      3  C   UNL     1       4.185 -13.956  32.839  0.00  0.00    +0.000 A 
ATOM      4  C   UNL     1       5.156 -14.428  33.600  0.00  0.00    +0.000 A 
ATOM      5  C   UNL     1       5.168 -15.781  33.800  0.00  0.00    +0.000 A 
ATOM      6  C   UNL     1       4.130 -16.569  33.368  0.00  0.00    +0.000 A 
ENDROOT
BRANCH   1   8
ATOM      7  C   UNL     1       0.768 -16.246  32.012  0.00  0.00    +0.000 C 
ATOM      8  O   UNL     1       2.047 -16.834  32.194  0.00  0.00    +0.000 OA
ENDBRANCH   1   8
BRANCH   3   9
ATOM      9  C   UNL     1       4.330 -12.541  32.306  0.00  0.00    +0.000 C 
ATOM     10  C   UNL     1       5.363 -12.228  31.478  0.00  0.00    +0.000 C 
BRANCH  10  11
ATOM     11  C   UNL     1       5.508 -10.811  30.945  0.00  0.00    +0.000 A 
ATOM     12  C   UNL     1       4.870  -9.737  31.544  0.00  0.00    +0.000 A 
ATOM     13  C   UNL     1       4.920  -8.545  30.784  0.00  0.00    +0.000 A 
ATOM     14  C   UNL     1       5.766  -8.321  29.796  0.00  0.00    +0.000 A 
ATOM     15  C   UNL     1       6.417  -9.414  29.294  0.00  0.00    +0.000 A 
ATOM     16  C   UNL     1       6.314 -10.641  29.904  0.00  0.00    +0.000 A 
BRANCH  14  17
ATOM     17  O   UNL     1       5.989  -7.016  29.283  0.00  0.00    +0.000 OA
ATOM     18  H   UNL     1       6.905  -6.746  28.985  0.00  0.00    +0.000 HD
ENDBRANCH  14  17
ENDBRANCH  10  11
ENDBRANCH   3   9
BRANCH   5  19
ATOM     19  O   UNL     1       6.273 -16.380  34.462  0.00  0.00    +0.000 OA
ATOM     20  C   UNL     1       7.594 -15.947  34.175  0.00  0.00    +0.000 C 
ENDBRANCH   5  19
TORSDOF 5
ENDMDL
MODEL 4
REMARK VINA RESULT:    -4.835      1.389      2.996
REMARK INTER + INTRA:          -6.579
REMARK INTER:                  -6.105
REMARK INTRA:                  -0.474
REMARK UNBOUND:                -0.473
REMARK  Name = 
REMARK  7 active torsions:
REMARK  status: ('A' for Active; 'I' for Inactive)
REMARK    1  A    between atoms: C_1  and  O_2
REMARK    2  A    between atoms: O_2  and  C_3
REMARK    3  A    between atoms: C_5  and  C_6
REMARK    4  A    between atoms: C_7  and  C_8
REMARK    5  A    between atoms: C_11  and  O_12
REMARK    6  A    between atoms: C_16  and  O_17
REMARK    7  A    between atoms: O_17  and  C_18
REMARK                            x       y       z     vdW  Elec       q    Type
REMARK                         _______ _______ _______ _____ _____    ______ ____
ROOT
ATOM      1  C   UNL     1       8.253 -15.765  30.569  0.00  0.00    +0.000 A 
ATOM      2  C   UNL     1       7.555 -14.754  29.927  0.00  0.00    +0.000 A 
ATOM      3  C   UNL     1       6.813 -13.926  30.802  0.00  0.00    +0.000 A 
ATOM      4  C   UNL     1       6.488 -14.247  32.041  0.00  0.00    +0.000 A 
ATOM      5  C   UNL     1       7.165 -15.298  32.594  0.00  0.00    +0.000 A 
ATOM      6  C   UNL     1       8.008 -16.073  31.836  0.00  0.00    +0.000 A 
ENDROOT
BRANCH   1   8
ATOM      7  C   UNL     1       8.660 -17.116  28.554  0.00  0.00    +0.000 C 
ATOM      8  O   UNL     1       9.132 -16.535  29.761  0.00  0.00    +0.000 OA
ENDBRANCH   1   8
BRANCH   3   9
ATOM      9  C   UNL     1       6.357 -12.574  30.279  0.00  0.00    +0.000 C 
ATOM     10  C   UNL     1       6.332 -11.497  31.109  0.00  0.00    +0.000 C 
BRANCH  10  11
ATOM     11  C   UNL     1       5.876 -10.144  30.586  0.00  0.00    +0.000 A 
ATOM     12  C   UNL     1       4.962  -9.365  31.277  0.00  0.00    +0.000 A 
ATOM     13  C   UNL     1       4.473  -8.263  30.536  0.00  0.00    +0.000 A 
ATOM     14  C   UNL     1       5.050  -7.772  29.455  0.00  0.00    +0.000 A 
ATOM     15  C   UNL     1       5.994  -8.562  28.858  0.00  0.00    +0.000 A 
ATOM     16  C   UNL     1       6.428  -9.720  29.456  0.00  0.00    +0.000 A 
BRANCH  14  17
ATOM     17  O   UNL     1       4.710  -6.493  28.941  0.00  0.00    +0.000 OA
ATOM     18  H   UNL     1       3.751  -6.256  28.786  0.00  0.00    +0.000 HD
ENDBRANCH  14  17
ENDBRANCH  10  11
ENDBRANCH   3   9
BRANCH   5  19
ATOM     19  O   UNL     1       6.994 -15.593  33.973  0.00  0.00    +0.000 OA
ATOM     20  C   UNL     1       5.709 -15.933  34.473  0.00  0.00    +0.000 C 
ENDBRANCH   5  19
TORSDOF 5
ENDMDL
MODEL 5
REMARK VINA RESULT:    -4.798      2.103      7.772
REMARK INTER + INTRA:          -6.533
REMARK INTER:                  -6.075
REMARK INTRA:                  -0.457
REMARK UNBOUND:                -0.473
REMARK  Name = 
REMARK  7 active torsions:
REMARK  status: ('A' for Active; 'I' for Inactive)
REMARK    1  A    between atoms: C_1  and  O_2
REMARK    2  A    between atoms: O_2  and  C_3
REMARK    3  A    between atoms: C_5  and  C_6
REMARK    4  A    between atoms: C_7  and  C_8
REMARK    5  A    between atoms: C_11  and  O_12
REMARK    6  A    between atoms: C_16  and  O_17
REMARK    7  A    between atoms: O_17  and  C_18
REMARK                            x       y       z     vdW  Elec       q    Type
REMARK                         _______ _______ _______ _____ _____    ______ ____
ROOT
ATOM      1  C   UNL     1       5.688 -11.133  27.687  0.00  0.00    +0.000 A 
ATOM      2  C   UNL     1       6.217 -12.232  28.347  0.00  0.00    +0.000 A 
ATOM      3  C   UNL     1       6.383 -12.039  29.739  0.00  0.00    +0.000 A 
ATOM      4  C   UNL     1       6.397 -10.861  30.336  0.00  0.00    +0.000 A 
ATOM      5  C   UNL     1       5.925  -9.804  29.607  0.00  0.00    +0.000 A 
ATOM      6  C   UNL     1       5.618  -9.945  28.276  0.00  0.00    +0.000 A 
ENDROOT
BRANCH   1   8
ATOM      7  C   UNL     1       4.629 -10.320  25.622  0.00  0.00    +0.000 C 
ATOM      8  O   UNL     1       5.362 -11.318  26.318  0.00  0.00    +0.000 OA
ENDBRANCH   1   8
BRANCH   3   9
ATOM      9  C   UNL     1       6.556 -13.274  30.608  0.00  0.00    +0.000 C 
ATOM     10  C   UNL     1       6.264 -13.218  31.935  0.00  0.00    +0.000 C 
BRANCH  10  11
ATOM     11  C   UNL     1       6.438 -14.453  32.804  0.00  0.00    +0.000 A 
ATOM     12  C   UNL     1       7.612 -15.189  32.800  0.00  0.00    +0.000 A 
ATOM     13  C   UNL     1       7.514 -16.427  33.477  0.00  0.00    +0.000 A 
ATOM     14  C   UNL     1       6.564 -16.737  34.339  0.00  0.00    +0.000 A 
ATOM     15  C   UNL     1       5.459 -15.931  34.341  0.00  0.00    +0.000 A 
ATOM     16  C   UNL     1       5.428 -14.772  33.605  0.00  0.00    +0.000 A 
BRANCH  14  17
ATOM     17  O   UNL     1       6.683 -17.847  35.217  0.00  0.00    +0.000 OA
ATOM     18  H   UNL     1       6.825 -18.765  34.846  0.00  0.00    +0.000 HD
ENDBRANCH  14  17
ENDBRANCH  10  11
ENDBRANCH   3   9
BRANCH   5  19
ATOM     19  O   UNL     1       5.750  -8.543  30.236  0.00  0.00    +0.000 OA
ATOM     20  C   UNL     1       5.322  -7.423  29.475  0.00  0.00    +0.000 C 
ENDBRANCH   5  19
TORSDOF 5
ENDMDL
