MODEL 1
REMARK VINA RESULT:    -5.190      0.000      0.000
REMARK INTER + INTRA:          -6.633
REMARK INTER:                  -6.238
REMARK INTRA:                  -0.394
REMARK UNBOUND:                -0.380
REMARK  Name = 
REMARK  5 active torsions:
REMARK  status: ('A' for Active; 'I' for Inactive)
REMARK    1  A    between atoms: C_1  and  O_2
REMARK    2  A    between atoms: O_2  and  C_3
REMARK    3  A    between atoms: C_5  and  O_6
REMARK    4  A    between atoms: C_8  and  C_9
REMARK    5  A    between atoms: C_10  and  C_11
REMARK                            x       y       z     vdW  Elec       q    Type
REMARK                         _______ _______ _______ _____ _____    ______ ____
ROOT
ATOM      1  C   UNL     1       4.791 -16.085  33.358  0.00  0.00    +0.000 A 
ATOM      2  C   UNL     1       6.051 -16.271  33.876  0.00  0.00    +0.000 A 
ATOM      3  C   UNL     1       7.011 -15.290  33.728  0.00  0.00    +0.000 A 
ATOM      4  C   UNL     1       6.709 -14.116  33.080  0.00  0.00    +0.000 A 
ATOM      5  C   UNL     1       5.442 -13.906  32.583  0.00  0.00    +0.000 A 
ATOM      6  C   UNL     1       4.445 -14.878  32.716  0.00  0.00    +0.000 A 
ENDROOT
BRANCH   1   8
ATOM      7  C   UNL     1       4.258 -18.356  34.043  0.00  0.00    +0.000 C 
ATOM      8  O   UNL     1       3.898 -17.090  33.510  0.00  0.00    +0.000 OA
ENDBRANCH   1   8
BRANCH   3   9
ATOM      9  O   UNL     1       8.317 -15.495  34.248  0.00  0.00    +0.000 OA
ATOM     10  H   UNL     1       8.441 -16.006  35.100  0.00  0.00    +0.000 HD
ENDBRANCH   3   9
BRANCH   5  11
ATOM     11  C   UNL     1       5.123 -12.597  31.880  0.00  0.00    +0.000 C 
ATOM     12  C   UNL     1       6.131 -11.779  31.473  0.00  0.00    +0.000 C 
BRANCH  12  13
ATOM     13  C   UNL     1       5.811 -10.470  30.770  0.00  0.00    +0.000 A 
ATOM     14  C   UNL     1       6.430 -10.117  29.582  0.00  0.00    +0.000 A 
ATOM     15  C   UNL     1       6.287  -8.750  29.245  0.00  0.00    +0.000 A 
ATOM     16  C   UNL     1       5.382  -7.941  29.765  0.00  0.00    +0.000 A 
ATOM     17  C   UNL     1       4.757  -8.377  30.901  0.00  0.00    +0.000 A 
ATOM     18  C   UNL     1       4.947  -9.656  31.365  0.00  0.00    +0.000 A 
ENDBRANCH  12  13
ENDBRANCH   5  11
TORSDOF 4
ENDMDL
MODEL 2
REMARK VINA RESULT:    -5.110      1.244      2.348
REMARK INTER + INTRA:          -6.536
REMARK INTER:                  -6.145
REMARK INTRA:                  -0.391
REMARK UNBOUND:                -0.380
REMARK  Name = 
REMARK  5 active torsions:
REMARK  status: ('A' for Active; 'I' for Inactive)
REMARK    1  A    between atoms: C_1  and  O_2
REMARK    2  A    between atoms: O_2  and  C_3
REMARK    3  A    between atoms: C_5  and  O_6
REMARK    4  A    between atoms: C_8  and  C_9
REMARK    5  A    between atoms: C_10  and  C_11
REMARK                            x       y       z     vdW  Elec       q    Type
REMARK                         _______ _______ _______ _____ _____    ______ ____
ROOT
ATOM      1  C   UNL     1       7.549 -15.655  32.736  0.00  0.00    +0.000 A 
ATOM      2  C   UNL     1       6.738 -16.249  33.674  0.00  0.00    +0.000 A 
ATOM      3  C   UNL     1       5.553 -15.645  34.045  0.00  0.00    +0.000 A 
ATOM      4  C   UNL     1       5.169 -14.460  33.466  0.00  0.00    +0.000 A 
ATOM      5  C   UNL     1       5.958 -13.871  32.504  0.00  0.00    +0.000 A 
ATOM      6  C   UNL     1       7.165 -14.455  32.105  0.00  0.00    +0.000 A 
ENDROOT
BRANCH   1   8
ATOM      7  C   UNL     1       8.940 -16.891  31.171  0.00  0.00    +0.000 C 
ATOM      8  O   UNL     1       8.711 -16.278  32.431  0.00  0.00    +0.000 OA
ENDBRANCH   1   8
BRANCH   3   9
ATOM      9  O   UNL     1       4.728 -16.253  35.028  0.00  0.00    +0.000 OA
ATOM     10  H   UNL     1       5.126 -16.892  35.689  0.00  0.00    +0.000 HD
ENDBRANCH   3   9
BRANCH   5  11
ATOM     11  C   UNL     1       5.511 -12.565  31.867  0.00  0.00    +0.000 C 
ATOM     12  C   UNL     1       6.427 -11.743  31.287  0.00  0.00    +0.000 C 
BRANCH  12  13
ATOM     13  C   UNL     1       5.981 -10.437  30.650  0.00  0.00    +0.000 A 
ATOM     14  C   UNL     1       6.464 -10.031  29.417  0.00  0.00    +0.000 A 
ATOM     15  C   UNL     1       6.227  -8.666  29.130  0.00  0.00    +0.000 A 
ATOM     16  C   UNL     1       5.340  -7.912  29.753  0.00  0.00    +0.000 A 
ATOM     17  C   UNL     1       4.849  -8.401  30.933  0.00  0.00    +0.000 A 
ATOM     18  C   UNL     1       5.141  -9.677  31.345  0.00  0.00    +0.000 A 
ENDBRANCH  12  13
ENDBRANCH   5  11
TORSDOF 4
ENDMDL
MODEL 3
REMARK VINA RESULT:    -5.046      3.000      6.914
REMARK INTER + INTRA:          -6.459
REMARK INTER:                  -6.056
REMARK INTRA:                  -0.403
REMARK UNBOUND:                -0.380
REMARK  Name = 
REMARK  5 active torsions:
REMARK  status: ('A' for Active; 'I' for Inactive)
REMARK    1  A    between atoms: C_1  and  O_2
REMARK    2  A    between atoms: O_2  and  C_3
REMARK    3  A    between atoms: C_5  and  O_6
REMARK    4  A    between atoms: C_8  and  C_9
REMARK    5  A    between atoms: C_10  and  C_11
REMARK                            x       y       z     vdW  Elec       q    Type
REMARK                         _______ _______ _______ _____ _____    ______ ____
ROOT
ATOM      1  C   UNL     1       3.870 -10.271  31.192  0.00  0.00    +0.000 A 
ATOM      2  C   UNL     1       4.688  -9.597  30.316  0.00  0.00    +0.000 A 
ATOM      3  C   UNL     1       5.964 -10.061  30.067  0.00  0.00    +0.000 A 
ATOM      4  C   UNL     1       6.418 -11.206  30.675  0.00  0.00    +0.000 A 
ATOM      5  C   UNL     1       5.598 -11.906  31.531  0.00  0.00    +0.000 A 
ATOM      6  C   UNL     1       4.299 -11.465  31.807  0.00  0.00    +0.000 A 
ENDROOT
BRANCH   1   8
ATOM      7  C   UNL     1       2.078  -9.668  32.720  0.00  0.00    +0.000 C 
ATOM      8  O   UNL     1       2.640  -9.757  31.419  0.00  0.00    +0.000 OA
ENDBRANCH   1   8
BRANCH   3   9
ATOM      9  O   UNL     1       6.812  -9.349  29.176  0.00  0.00    +0.000 OA
ATOM     10  H   UNL     1       6.939  -9.677  28.239  0.00  0.00    +0.000 HD
ENDBRANCH   3   9
BRANCH   5  11
ATOM     11  C   UNL     1       6.111 -13.178  32.187  0.00  0.00    +0.000 C 
ATOM     12  C   UNL     1       5.350 -13.821  33.112  0.00  0.00    +0.000 C 
BRANCH  12  13
ATOM     13  C   UNL     1       5.864 -15.092  33.769  0.00  0.00    +0.000 A 
ATOM     14  C   UNL     1       7.202 -15.448  33.710  0.00  0.00    +0.000 A 
ATOM     15  C   UNL     1       7.453 -16.795  34.060  0.00  0.00    +0.000 A 
ATOM     16  C   UNL     1       6.611 -17.567  34.722  0.00  0.00    +0.000 A 
ATOM     17  C   UNL     1       5.318 -17.127  34.802  0.00  0.00    +0.000 A 
ATOM     18  C   UNL     1       4.970 -15.874  34.363  0.00  0.00    +0.000 A 
ENDBRANCH  12  13
ENDBRANCH   5  11
TORSDOF 4
ENDMDL
MODEL 4
REMARK VINA RESULT:    -5.044      3.040      7.269
REMARK INTER + INTRA:          -6.456
REMARK INTER:                  -6.064
REMARK INTRA:                  -0.392
REMARK UNBOUND:                -0.380
REMARK  Name = 
REMARK  5 active torsions:
REMARK  status: ('A' for Active; 'I' for Inactive)
REMARK    1  A    between atoms: C_1  and  O_2
REMARK    2  A    between atoms: O_2  and  C_3
REMARK    3  A    between atoms: C_5  and  O_6
REMARK    4  A    between atoms: C_8  and  C_9
REMARK    5  A    between atoms: C_10  and  C_11
REMARK                            x       y       z     vdW  Elec       q    Type
REMARK                         _______ _______ _______ _____ _____    ______ ____
ROOT
ATOM      1  C   UNL     1       5.691  -9.606  30.165  0.00  0.00    +0.000 A 
ATOM      2  C   UNL     1       6.087 -10.013  28.913  0.00  0.00    +0.000 A 
ATOM      3  C   UNL     1       6.427 -11.333  28.691  0.00  0.00    +0.000 A 
ATOM      4  C   UNL     1       6.353 -12.249  29.712  0.00  0.00    +0.000 A 
ATOM      5  C   UNL     1       5.929 -11.860  30.963  0.00  0.00    +0.000 A 
ATOM      6  C   UNL     1       5.577 -10.531  31.223  0.00  0.00    +0.000 A 
ENDROOT
BRANCH   1   8
ATOM      7  C   UNL     1       4.819  -7.508  29.301  0.00  0.00    +0.000 C 
ATOM      8  O   UNL     1       5.395  -8.297  30.332  0.00  0.00    +0.000 OA
ENDBRANCH   1   8
BRANCH   3   9
ATOM      9  O   UNL     1       6.854 -11.744  27.400  0.00  0.00    +0.000 OA
ATOM     10  H   UNL     1       6.945 -12.719  27.191  0.00  0.00    +0.000 HD
ENDBRANCH   3   9
BRANCH   5  11
ATOM     11  C   UNL     1       5.843 -12.890  32.077  0.00  0.00    +0.000 C 
ATOM     12  C   UNL     1       6.457 -14.095  31.939  0.00  0.00    +0.000 C 
BRANCH  12  13
ATOM     13  C   UNL     1       6.370 -15.126  33.054  0.00  0.00    +0.000 A 
ATOM     14  C   UNL     1       7.494 -15.793  33.512  0.00  0.00    +0.000 A 
ATOM     15  C   UNL     1       7.204 -16.940  34.288  0.00  0.00    +0.000 A 
ATOM     16  C   UNL     1       6.035 -17.187  34.850  0.00  0.00    +0.000 A 
ATOM     17  C   UNL     1       4.976 -16.446  34.402  0.00  0.00    +0.000 A 
ATOM     18  C   UNL     1       5.164 -15.393  33.541  0.00  0.00    +0.000 A 
ENDBRANCH  12  13
ENDBRANCH   5  11
TORSDOF 4
ENDMDL
MODEL 5
REMARK VINA RESULT:    -4.946      2.891      7.261
REMARK INTER + INTRA:          -6.338
REMARK INTER:                  -5.958
REMARK INTRA:                  -0.380
REMARK UNBOUND:                -0.380
REMARK  Name = 
REMARK  5 active torsions:
REMARK  status: ('A' for Active; 'I' for Inactive)
REMARK    1  A    between atoms: C_1  and  O_2
REMARK    2  A    between atoms: O_2  and  C_3
REMARK    3  A    between atoms: C_5  and  O_6
REMARK    4  A    between atoms: C_8  and  C_9
REMARK    5  A    between atoms: C_10  and  C_11
REMARK                            x       y       z     vdW  Elec       q    Type
REMARK                         _______ _______ _______ _____ _____    ______ ____
ROOT
ATOM      1  C   UNL     1       6.011 -10.301  30.264  0.00  0.00    +0.000 A 
ATOM      2  C   UNL     1       5.011  -9.689  30.983  0.00  0.00    +0.000 A 
ATOM      3  C   UNL     1       4.322 -10.396  31.948  0.00  0.00    +0.000 A 
ATOM      4  C   UNL     1       4.642 -11.706  32.209  0.00  0.00    +0.000 A 
ATOM      5  C   UNL     1       5.661 -12.321  31.517  0.00  0.00    +0.000 A 
ATOM      6  C   UNL     1       6.381 -11.635  30.532  0.00  0.00    +0.000 A 
ENDROOT
BRANCH   1   8
ATOM      7  C   UNL     1       5.984  -8.522  28.607  0.00  0.00    +0.000 C 
ATOM      8  O   UNL     1       6.635  -9.568  29.314  0.00  0.00    +0.000 OA
ENDBRANCH   1   8
BRANCH   3   9
ATOM      9  O   UNL     1       3.276  -9.765  32.674  0.00  0.00    +0.000 OA
ATOM     10  H   UNL     1       2.332  -9.828  32.347  0.00  0.00    +0.000 HD
ENDBRANCH   3   9
BRANCH   5  11
ATOM     11  C   UNL     1       6.010 -13.768  31.826  0.00  0.00    +0.000 C 
ATOM     12  C   UNL     1       6.787 -14.065  32.902  0.00  0.00    +0.000 C 
BRANCH  12  13
ATOM     13  C   UNL     1       7.136 -15.512  33.212  0.00  0.00    +0.000 A 
ATOM     14  C   UNL     1       7.980 -16.244  32.392  0.00  0.00    +0.000 A 
ATOM     15  C   UNL     1       7.929 -17.639  32.619  0.00  0.00    +0.000 A 
ATOM     16  C   UNL     1       7.438 -18.205  33.707  0.00  0.00    +0.000 A 
ATOM     17  C   UNL     1       6.669 -17.410  34.510  0.00  0.00    +0.000 A 
ATOM     18  C   UNL     1       6.563 -16.060  34.278  0.00  0.00    +0.000 A 
ENDBRANCH  12  13
ENDBRANCH   5  11
TORSDOF 4
ENDMDL
