MODEL 1
REMARK VINA RESULT:    -5.145      0.000      0.000
REMARK INTER + INTRA:          -7.462
REMARK INTER:                  -6.660
REMARK INTRA:                  -0.802
REMARK UNBOUND:                -0.662
REMARK  Name = 
REMARK  8 active torsions:
REMARK  status: ('A' for Active; 'I' for Inactive)
REMARK    1  A    between atoms: C_1  and  O_2
REMARK    2  A    between atoms: O_2  and  C_3
REMARK    3  A    between atoms: C_6  and  C_7
REMARK    4  A    between atoms: C_8  and  C_9
REMARK    5  A    between atoms: C_9  and  C_11
REMARK    6  A    between atoms: C_14  and  O_15
REMARK    7  A    between atoms: O_15  and  C_16
REMARK    8  A    between atoms: C_18  and  O_19
REMARK                            x       y       z     vdW  Elec       q    Type
REMARK                         _______ _______ _______ _____ _____    ______ ____
ROOT
ATOM      1  C   UNL     1       5.645 -14.190  32.632  0.00  0.00    +0.000 C 
ATOM      2  O   UNL     1       5.100 -14.531  33.728  0.00  0.00    +0.000 OA
ENDROOT
BRANCH   1   3
ATOM      3  C   UNL     1       6.673 -15.100  31.980  0.00  0.00    +0.000 A 
ATOM      4  C   UNL     1       6.490 -15.500  30.666  0.00  0.00    +0.000 A 
ATOM      5  C   UNL     1       7.338 -16.560  30.267  0.00  0.00    +0.000 A 
ATOM      6  C   UNL     1       8.438 -16.920  30.902  0.00  0.00    +0.000 A 
ATOM      7  C   UNL     1       8.593 -16.436  32.171  0.00  0.00    +0.000 A 
ATOM      8  C   UNL     1       7.731 -15.495  32.680  0.00  0.00    +0.000 A 
BRANCH   6   9
ATOM      9  O   UNL     1       9.409 -17.763  30.298  0.00  0.00    +0.000 OA
ATOM     10  C   UNL     1      10.655 -17.224  29.881  0.00  0.00    +0.000 C 
ENDBRANCH   6   9
BRANCH   8  11
ATOM     11  O   UNL     1       7.970 -14.942  33.965  0.00  0.00    +0.000 OA
ATOM     12  H   UNL     1       8.905 -14.864  34.310  0.00  0.00    +0.000 HD
ENDBRANCH   8  11
ENDBRANCH   1   3
BRANCH   1  14
ATOM     13  C   UNL     1       6.243 -12.014  31.566  0.00  0.00    +0.000 C 
ATOM     14  C   UNL     1       5.269 -12.873  31.974  0.00  0.00    +0.000 C 
BRANCH  13  18
ATOM     15  C   UNL     1       5.371  -8.213  29.825  0.00  0.00    +0.000 A 
ATOM     16  C   UNL     1       6.309  -9.026  29.211  0.00  0.00    +0.000 A 
ATOM     17  C   UNL     1       6.362 -10.339  29.736  0.00  0.00    +0.000 A 
ATOM     18  C   UNL     1       5.867 -10.697  30.907  0.00  0.00    +0.000 A 
ATOM     19  C   UNL     1       4.999  -9.819  31.495  0.00  0.00    +0.000 A 
ATOM     20  C   UNL     1       4.795  -8.567  30.968  0.00  0.00    +0.000 A 
BRANCH  15  22
ATOM     21  C   UNL     1       3.860  -6.504  28.905  0.00  0.00    +0.000 C 
ATOM     22  O   UNL     1       5.170  -6.932  29.244  0.00  0.00    +0.000 OA
ENDBRANCH  15  22
ENDBRANCH  13  18
ENDBRANCH   1  14
TORSDOF 6
ENDMDL
MODEL 2
REMARK VINA RESULT:    -5.066      5.599      8.752
REMARK INTER + INTRA:          -7.357
REMARK INTER:                  -6.695
REMARK INTRA:                  -0.662
REMARK UNBOUND:                -0.662
REMARK  Name = 
REMARK  8 active torsions:
REMARK  status: ('A' for Active; 'I' for Inactive)
REMARK    1  A    between atoms: C_1  and  O_2
REMARK    2  A    between atoms: O_2  and  C_3
REMARK    3  A    between atoms: C_6  and  C_7
REMARK    4  A    between atoms: C_8  and  C_9
REMARK    5  A    between atoms: C_9  and  C_11
REMARK    6  A    between atoms: C_14  and  O_15
REMARK    7  A    between atoms: O_15  and  C_16
REMARK    8  A    between atoms: C_18  and  O_19
REMARK                            x       y       z     vdW  Elec       q    Type
REMARK                         _______ _______ _______ _____ _____    ______ ____
ROOT
ATOM      1  C   UNL     1       6.370 -12.184  27.775  0.00  0.00    +0.000 C 
ATOM      2  O   UNL     1       6.470 -13.102  28.648  0.00  0.00    +0.000 OA
ENDROOT
BRANCH   1   3
ATOM      3  C   UNL     1       5.905 -10.795  28.184  0.00  0.00    +0.000 A 
ATOM      4  C   UNL     1       4.939 -10.152  27.428  0.00  0.00    +0.000 A 
ATOM      5  C   UNL     1       4.801  -8.776  27.726  0.00  0.00    +0.000 A 
ATOM      6  C   UNL     1       5.247  -8.198  28.826  0.00  0.00    +0.000 A 
ATOM      7  C   UNL     1       6.148  -8.913  29.565  0.00  0.00    +0.000 A 
ATOM      8  C   UNL     1       6.434 -10.222  29.260  0.00  0.00    +0.000 A 
BRANCH   6   9
ATOM      9  O   UNL     1       4.813  -6.905  29.222  0.00  0.00    +0.000 OA
ATOM     10  C   UNL     1       3.435  -6.568  29.157  0.00  0.00    +0.000 C 
ENDBRANCH   6   9
BRANCH   8  11
ATOM     11  O   UNL     1       7.301 -10.968  30.100  0.00  0.00    +0.000 OA
ATOM     12  H   UNL     1       8.221 -10.629  30.297  0.00  0.00    +0.000 HD
ENDBRANCH   8  11
ENDBRANCH   1   3
BRANCH   1  14
ATOM     13  C   UNL     1       7.933 -12.988  26.004  0.00  0.00    +0.000 C 
ATOM     14  C   UNL     1       6.715 -12.473  26.324  0.00  0.00    +0.000 C 
BRANCH  13  18
ATOM     15  C   UNL     1       9.132 -13.791  21.984  0.00  0.00    +0.000 A 
ATOM     16  C   UNL     1       9.053 -14.846  22.878  0.00  0.00    +0.000 A 
ATOM     17  C   UNL     1       8.440 -14.511  24.108  0.00  0.00    +0.000 A 
ATOM     18  C   UNL     1       8.279 -13.277  24.553  0.00  0.00    +0.000 A 
ATOM     19  C   UNL     1       8.438 -12.276  23.637  0.00  0.00    +0.000 A 
ATOM     20  C   UNL     1       8.907 -12.541  22.373  0.00  0.00    +0.000 A 
BRANCH  15  22
ATOM     21  C   UNL     1      10.600 -13.295  20.074  0.00  0.00    +0.000 C 
ATOM     22  O   UNL     1       9.602 -14.103  20.680  0.00  0.00    +0.000 OA
ENDBRANCH  15  22
ENDBRANCH  13  18
ENDBRANCH   1  14
TORSDOF 6
ENDMDL
MODEL 3
REMARK VINA RESULT:    -4.984      2.161      3.121
REMARK INTER + INTRA:          -7.249
REMARK INTER:                  -6.552
REMARK INTRA:                  -0.696
REMARK UNBOUND:                -0.662
REMARK  Name = 
REMARK  8 active torsions:
REMARK  status: ('A' for Active; 'I' for Inactive)
REMARK    1  A    between atoms: C_1  and  O_2
REMARK    2  A    between atoms: O_2  and  C_3
REMARK    3  A    between atoms: C_6  and  C_7
REMARK    4  A    between atoms: C_8  and  C_9
REMARK    5  A    between atoms: C_9  and  C_11
REMARK    6  A    between atoms: C_14  and  O_15
REMARK    7  A    between atoms: O_15  and  C_16
REMARK    8  A    between atoms: C_18  and  O_19
REMARK                            x       y       z     vdW  Elec       q    Type
REMARK                         _______ _______ _______ _____ _____    ______ ____
ROOT
ATOM      1  C   UNL     1       6.846 -14.616  31.192  0.00  0.00    +0.000 C 
ATOM      2  O   UNL     1       7.881 -14.940  30.530  0.00  0.00    +0.000 OA
ENDROOT
BRANCH   1   3
ATOM      3  C   UNL     1       6.233 -15.601  32.174  0.00  0.00    +0.000 A 
ATOM      4  C   UNL     1       4.939 -16.051  31.968  0.00  0.00    +0.000 A 
ATOM      5  C   UNL     1       4.381 -16.721  33.082  0.00  0.00    +0.000 A 
ATOM      6  C   UNL     1       5.080 -17.212  34.089  0.00  0.00    +0.000 A 
ATOM      7  C   UNL     1       6.373 -16.780  34.198  0.00  0.00    +0.000 A 
ATOM      8  C   UNL     1       6.948 -16.014  33.214  0.00  0.00    +0.000 A 
BRANCH   6   9
ATOM      9  O   UNL     1       4.520 -18.139  35.007  0.00  0.00    +0.000 OA
ATOM     10  C   UNL     1       3.777 -19.251  34.529  0.00  0.00    +0.000 C 
ENDBRANCH   6   9
BRANCH   8  11
ATOM     11  O   UNL     1       8.320 -15.659  33.309  0.00  0.00    +0.000 OA
ATOM     12  H   UNL     1       8.720 -15.024  32.648  0.00  0.00    +0.000 HD
ENDBRANCH   8  11
ENDBRANCH   1   3
BRANCH   1  14
ATOM     13  C   UNL     1       6.775 -12.358  30.129  0.00  0.00    +0.000 C 
ATOM     14  C   UNL     1       6.220 -13.244  31.001  0.00  0.00    +0.000 C 
BRANCH  13  18
ATOM     15  C   UNL     1       5.229  -8.408  29.633  0.00  0.00    +0.000 A 
ATOM     16  C   UNL     1       5.832  -9.027  28.551  0.00  0.00    +0.000 A 
ATOM     17  C   UNL     1       6.108 -10.399  28.756  0.00  0.00    +0.000 A 
ATOM     18  C   UNL     1       6.149 -10.987  29.938  0.00  0.00    +0.000 A 
ATOM     19  C   UNL     1       5.599 -10.295  30.980  0.00  0.00    +0.000 A 
ATOM     20  C   UNL     1       5.184  -8.994  30.825  0.00  0.00    +0.000 A 
BRANCH  15  22
ATOM     21  C   UNL     1       3.840  -6.776  28.425  0.00  0.00    +0.000 C 
ATOM     22  O   UNL     1       4.795  -7.070  29.434  0.00  0.00    +0.000 OA
ENDBRANCH  15  22
ENDBRANCH  13  18
ENDBRANCH   1  14
TORSDOF 6
ENDMDL
MODEL 4
REMARK VINA RESULT:    -4.939      5.399      9.290
REMARK INTER + INTRA:          -7.189
REMARK INTER:                  -6.427
REMARK INTRA:                  -0.762
REMARK UNBOUND:                -0.662
REMARK  Name = 
REMARK  8 active torsions:
REMARK  status: ('A' for Active; 'I' for Inactive)
REMARK    1  A    between atoms: C_1  and  O_2
REMARK    2  A    between atoms: O_2  and  C_3
REMARK    3  A    between atoms: C_6  and  C_7
REMARK    4  A    between atoms: C_8  and  C_9
REMARK    5  A    between atoms: C_9  and  C_11
REMARK    6  A    between atoms: C_14  and  O_15
REMARK    7  A    between atoms: O_15  and  C_16
REMARK    8  A    between atoms: C_18  and  O_19
REMARK                            x       y       z     vdW  Elec       q    Type
REMARK                         _______ _______ _______ _____ _____    ______ ____
ROOT
ATOM      1  C   UNL     1       6.082 -17.018  34.447  0.00  0.00    +0.000 C 
ATOM      2  O   UNL     1       7.248 -17.387  34.794  0.00  0.00    +0.000 OA
ENDROOT
BRANCH   1   3
ATOM      3  C   UNL     1       5.884 -15.678  33.757  0.00  0.00    +0.000 A 
ATOM      4  C   UNL     1       4.859 -14.844  34.174  0.00  0.00    +0.000 A 
ATOM      5  C   UNL     1       4.592 -13.777  33.283  0.00  0.00    +0.000 A 
ATOM      6  C   UNL     1       5.419 -13.360  32.342  0.00  0.00    +0.000 A 
ATOM      7  C   UNL     1       6.449 -14.200  32.024  0.00  0.00    +0.000 A 
ATOM      8  C   UNL     1       6.697 -15.329  32.765  0.00  0.00    +0.000 A 
BRANCH   6   9
ATOM      9  O   UNL     1       5.247 -12.107  31.697  0.00  0.00    +0.000 OA
ATOM     10  C   UNL     1       6.379 -11.301  31.401  0.00  0.00    +0.000 C 
ENDBRANCH   6   9
BRANCH   8  11
ATOM     11  O   UNL     1       7.829 -16.132  32.470  0.00  0.00    +0.000 OA
ATOM     12  H   UNL     1       7.788 -16.805  31.730  0.00  0.00    +0.000 HD
ENDBRANCH   8  11
ENDBRANCH   1   3
BRANCH   1  14
ATOM     13  C   UNL     1       4.368 -18.682  33.725  0.00  0.00    +0.000 C 
ATOM     14  C   UNL     1       4.887 -17.915  34.722  0.00  0.00    +0.000 C 
BRANCH  13  18
ATOM     15  C   UNL     1       0.896 -21.016  34.585  0.00  0.00    +0.000 A 
ATOM     16  C   UNL     1       0.943 -20.307  33.396  0.00  0.00    +0.000 A 
ATOM     17  C   UNL     1       2.213 -19.752  33.109  0.00  0.00    +0.000 A 
ATOM     18  C   UNL     1       3.173 -19.580  34.000  0.00  0.00    +0.000 A 
ATOM     19  C   UNL     1       3.034 -20.252  35.182  0.00  0.00    +0.000 A 
ATOM     20  C   UNL     1       1.875 -20.928  35.479  0.00  0.00    +0.000 A 
BRANCH  15  22
ATOM     21  C   UNL     1      -0.284 -23.126  35.036  0.00  0.00    +0.000 C 
ATOM     22  O   UNL     1      -0.309 -21.719  34.853  0.00  0.00    +0.000 OA
ENDBRANCH  15  22
ENDBRANCH  13  18
ENDBRANCH   1  14
TORSDOF 6
ENDMDL
MODEL 5
REMARK VINA RESULT:    -4.895      2.985      8.163
REMARK INTER + INTRA:          -7.130
REMARK INTER:                  -6.406
REMARK INTRA:                  -0.724
REMARK UNBOUND:                -0.662
REMARK  Name = 
REMARK  8 active torsions:
REMARK  status: ('A' for Active; 'I' for Inactive)
REMARK    1  A    between atoms: C_1  and  O_2
REMARK    2  A    between atoms: O_2  and  C_3
REMARK    3  A    between atoms: C_6  and  C_7
REMARK    4  A    between atoms: C_8  and  C_9
REMARK    5  A    between atoms: C_9  and  C_11
REMARK    6  A    between atoms: C_14  and  O_15
REMARK    7  A    between atoms: O_15  and  C_16
REMARK    8  A    between atoms: C_18  and  O_19
REMARK                            x       y       z     vdW  Elec       q    Type
REMARK                         _______ _______ _______ _____ _____    ______ ____
ROOT
ATOM      1  C   UNL     1       6.989 -13.567  30.104  0.00  0.00    +0.000 C 
ATOM      2  O   UNL     1       7.960 -13.893  29.351  0.00  0.00    +0.000 OA
ENDROOT
BRANCH   1   3
ATOM      3  C   UNL     1       6.550 -12.114  30.189  0.00  0.00    +0.000 A 
ATOM      4  C   UNL     1       6.279 -11.557  31.429  0.00  0.00    +0.000 A 
ATOM      5  C   UNL     1       5.609 -10.313  31.364  0.00  0.00    +0.000 A 
ATOM      6  C   UNL     1       5.548  -9.549  30.289  0.00  0.00    +0.000 A 
ATOM      7  C   UNL     1       5.893 -10.139  29.104  0.00  0.00    +0.000 A 
ATOM      8  C   UNL     1       6.433 -11.402  29.074  0.00  0.00    +0.000 A 
BRANCH   6   9
ATOM      9  O   UNL     1       5.147  -8.189  30.359  0.00  0.00    +0.000 OA
ATOM     10  C   UNL     1       4.735  -7.509  29.182  0.00  0.00    +0.000 C 
ENDBRANCH   6   9
BRANCH   8  11
ATOM     11  O   UNL     1       6.869 -11.952  27.840  0.00  0.00    +0.000 OA
ATOM     12  H   UNL     1       7.782 -11.740  27.492  0.00  0.00    +0.000 HD
ENDBRANCH   8  11
ENDBRANCH   1   3
BRANCH   1  14
ATOM     13  C   UNL     1       6.890 -15.212  31.979  0.00  0.00    +0.000 C 
ATOM     14  C   UNL     1       6.268 -14.628  30.918  0.00  0.00    +0.000 C 
BRANCH  13  18
ATOM     15  C   UNL     1       4.671 -18.057  34.264  0.00  0.00    +0.000 A 
ATOM     16  C   UNL     1       4.552 -18.074  32.885  0.00  0.00    +0.000 A 
ATOM     17  C   UNL     1       5.487 -17.247  32.218  0.00  0.00    +0.000 A 
ATOM     18  C   UNL     1       6.169 -16.273  32.793  0.00  0.00    +0.000 A 
ATOM     19  C   UNL     1       6.191 -16.271  34.160  0.00  0.00    +0.000 A 
ATOM     20  C   UNL     1       5.405 -17.137  34.881  0.00  0.00    +0.000 A 
BRANCH  15  22
ATOM     21  C   UNL     1       3.253 -20.066  34.299  0.00  0.00    +0.000 C 
ATOM     22  O   UNL     1       3.859 -18.977  34.979  0.00  0.00    +0.000 OA
ENDBRANCH  15  22
ENDBRANCH  13  18
ENDBRANCH   1  14
TORSDOF 6
ENDMDL
