MODEL 1
REMARK VINA RESULT:    -5.164      0.000      0.000
REMARK INTER + INTRA:          10.416
REMARK INTER:                  -6.086
REMARK INTRA:                  16.503
REMARK UNBOUND:                16.486
REMARK  Name = 
REMARK  5 active torsions:
REMARK  status: ('A' for Active; 'I' for Inactive)
REMARK    1  A    between atoms: C_1  and  O_2
REMARK    2  A    between atoms: O_2  and  C_3
REMARK    3  A    between atoms: C_6  and  C_7
REMARK    4  A    between atoms: C_19  and  O_20
REMARK    5  A    between atoms: O_20  and  C_21
REMARK                            x       y       z     vdW  Elec       q    Type
REMARK                         _______ _______ _______ _____ _____    ______ ____
ROOT
ATOM      1  C   UNL     1       5.221 -19.824  32.985  0.00  0.00    +0.000 A 
ATOM      2  C   UNL     1       6.472 -20.496  32.740  0.00  0.00    +0.000 A 
ATOM      3  C   UNL     1       7.699 -19.744  32.703  0.00  0.00    +0.000 A 
ATOM      4  O   UNL     1       8.802 -20.337  32.487  0.00  0.00    +0.000 OA
ATOM      5  C   UNL     1       7.676 -18.240  32.922  0.00  0.00    +0.000 A 
ATOM      6  C   UNL     1       8.404 -17.485  32.017  0.00  0.00    +0.000 A 
ATOM      7  C   UNL     1       8.561 -16.131  32.394  0.00  0.00    +0.000 A 
ATOM      8  C   UNL     1       7.820 -15.515  33.297  0.00  0.00    +0.000 A 
ATOM      9  C   UNL     1       7.070 -16.312  34.117  0.00  0.00    +0.000 A 
ATOM     10  C   UNL     1       6.972 -17.664  33.890  0.00  0.00    +0.000 A 
ATOM     11  O   UNL     1       4.075 -20.526  33.020  0.00  0.00    +0.000 OA
ENDROOT
BRANCH   1  15
ATOM     12  C   UNL     1       4.919 -15.608  33.600  0.00  0.00    +0.000 A 
ATOM     13  C   UNL     1       4.850 -16.447  34.700  0.00  0.00    +0.000 A 
ATOM     14  C   UNL     1       5.179 -17.793  34.415  0.00  0.00    +0.000 A 
ATOM     15  C   UNL     1       5.198 -18.320  33.204  0.00  0.00    +0.000 A 
ATOM     16  C   UNL     1       5.195 -17.439  32.159  0.00  0.00    +0.000 A 
ATOM     17  C   UNL     1       5.011 -16.093  32.368  0.00  0.00    +0.000 A 
BRANCH  12  19
ATOM     18  C   UNL     1       3.755 -13.454  33.836  0.00  0.00    +0.000 C 
ATOM     19  O   UNL     1       4.959 -14.206  33.823  0.00  0.00    +0.000 OA
ENDBRANCH  12  19
BRANCH  17  20
ATOM     20  O   UNL     1       4.918 -15.215  31.257  0.00  0.00    +0.000 OA
ATOM     21  C   UNL     1       5.714 -15.443  30.103  0.00  0.00    +0.000 C 
ENDBRANCH  17  20
ENDBRANCH   1  15
TORSDOF 3
ENDMDL
MODEL 2
REMARK VINA RESULT:    -5.122      2.093      3.205
REMARK INTER + INTRA:          10.465
REMARK INTER:                  -5.999
REMARK INTRA:                  16.464
REMARK UNBOUND:                16.486
REMARK  Name = 
REMARK  5 active torsions:
REMARK  status: ('A' for Active; 'I' for Inactive)
REMARK    1  A    between atoms: C_1  and  O_2
REMARK    2  A    between atoms: O_2  and  C_3
REMARK    3  A    between atoms: C_6  and  C_7
REMARK    4  A    between atoms: C_19  and  O_20
REMARK    5  A    between atoms: O_20  and  C_21
REMARK                            x       y       z     vdW  Elec       q    Type
REMARK                         _______ _______ _______ _____ _____    ______ ____
ROOT
ATOM      1  C   UNL     1       2.861 -17.152  32.016  0.00  0.00    +0.000 A 
ATOM      2  C   UNL     1       2.932 -18.261  32.933  0.00  0.00    +0.000 A 
ATOM      3  C   UNL     1       3.975 -18.311  33.923  0.00  0.00    +0.000 A 
ATOM      4  O   UNL     1       4.038 -19.290  34.732  0.00  0.00    +0.000 OA
ATOM      5  C   UNL     1       5.003 -17.194  34.003  0.00  0.00    +0.000 A 
ATOM      6  C   UNL     1       6.326 -17.594  34.098  0.00  0.00    +0.000 A 
ATOM      7  C   UNL     1       7.220 -16.546  34.417  0.00  0.00    +0.000 A 
ATOM      8  C   UNL     1       6.944 -15.260  34.290  0.00  0.00    +0.000 A 
ATOM      9  C   UNL     1       5.626 -14.934  34.130  0.00  0.00    +0.000 A 
ATOM     10  C   UNL     1       4.675 -15.908  33.943  0.00  0.00    +0.000 A 
ATOM     11  O   UNL     1       1.886 -17.105  31.090  0.00  0.00    +0.000 OA
ENDROOT
BRANCH   1  15
ATOM     12  C   UNL     1       5.653 -13.920  32.041  0.00  0.00    +0.000 A 
ATOM     13  C   UNL     1       4.405 -13.725  32.608  0.00  0.00    +0.000 A 
ATOM     14  C   UNL     1       3.644 -14.910  32.744  0.00  0.00    +0.000 A 
ATOM     15  C   UNL     1       3.889 -16.035  32.095  0.00  0.00    +0.000 A 
ATOM     16  C   UNL     1       5.114 -16.139  31.499  0.00  0.00    +0.000 A 
ATOM     17  C   UNL     1       5.966 -15.062  31.441  0.00  0.00    +0.000 A 
BRANCH  12  19
ATOM     18  C   UNL     1       6.488 -11.686  31.441  0.00  0.00    +0.000 C 
ATOM     19  O   UNL     1       6.624 -12.893  32.177  0.00  0.00    +0.000 OA
ENDBRANCH  12  19
BRANCH  17  20
ATOM     20  O   UNL     1       7.191 -15.172  30.733  0.00  0.00    +0.000 OA
ATOM     21  C   UNL     1       7.943 -16.375  30.798  0.00  0.00    +0.000 C 
ENDBRANCH  17  20
ENDBRANCH   1  15
TORSDOF 3
ENDMDL
MODEL 3
REMARK VINA RESULT:    -4.867      2.034      3.430
REMARK INTER + INTRA:          10.765
REMARK INTER:                  -5.711
REMARK INTRA:                  16.476
REMARK UNBOUND:                16.486
REMARK  Name = 
REMARK  5 active torsions:
REMARK  status: ('A' for Active; 'I' for Inactive)
REMARK    1  A    between atoms: C_1  and  O_2
REMARK    2  A    between atoms: O_2  and  C_3
REMARK    3  A    between atoms: C_6  and  C_7
REMARK    4  A    between atoms: C_19  and  O_20
REMARK    5  A    between atoms: O_20  and  C_21
REMARK                            x       y       z     vdW  Elec       q    Type
REMARK                         _______ _______ _______ _____ _____    ______ ____
ROOT
ATOM      1  C   UNL     1       7.166 -18.032  29.712  0.00  0.00    +0.000 A 
ATOM      2  C   UNL     1       8.423 -17.327  29.679  0.00  0.00    +0.000 A 
ATOM      3  C   UNL     1       8.953 -16.742  30.882  0.00  0.00    +0.000 A 
ATOM      4  O   UNL     1      10.061 -16.120  30.853  0.00  0.00    +0.000 OA
ATOM      5  C   UNL     1       8.188 -16.868  32.190  0.00  0.00    +0.000 A 
ATOM      6  C   UNL     1       8.051 -15.703  32.926  0.00  0.00    +0.000 A 
ATOM      7  C   UNL     1       7.559 -15.906  34.237  0.00  0.00    +0.000 A 
ATOM      8  C   UNL     1       6.940 -17.001  34.643  0.00  0.00    +0.000 A 
ATOM      9  C   UNL     1       7.056 -18.100  33.837  0.00  0.00    +0.000 A 
ATOM     10  C   UNL     1       7.642 -18.008  32.598  0.00  0.00    +0.000 A 
ATOM     11  O   UNL     1       6.671 -18.578  28.588  0.00  0.00    +0.000 OA
ENDROOT
BRANCH   1  15
ATOM     12  C   UNL     1       4.839 -18.487  33.265  0.00  0.00    +0.000 A 
ATOM     13  C   UNL     1       5.601 -19.558  32.827  0.00  0.00    +0.000 A 
ATOM     14  C   UNL     1       6.495 -19.235  31.779  0.00  0.00    +0.000 A 
ATOM     15  C   UNL     1       6.402 -18.158  31.020  0.00  0.00    +0.000 A 
ATOM     16  C   UNL     1       5.580 -17.164  31.473  0.00  0.00    +0.000 A 
ATOM     17  C   UNL     1       4.773 -17.359  32.569  0.00  0.00    +0.000 A 
BRANCH  12  19
ATOM     18  C   UNL     1       3.423 -19.757  34.824  0.00  0.00    +0.000 C 
ATOM     19  O   UNL     1       4.181 -18.596  34.518  0.00  0.00    +0.000 OA
ENDBRANCH  12  19
BRANCH  17  20
ATOM     20  O   UNL     1       3.861 -16.343  32.960  0.00  0.00    +0.000 OA
ATOM     21  C   UNL     1       4.266 -14.982  32.944  0.00  0.00    +0.000 C 
ENDBRANCH  17  20
ENDBRANCH   1  15
TORSDOF 3
ENDMDL
MODEL 4
REMARK VINA RESULT:    -4.857      1.477      5.132
REMARK INTER + INTRA:          10.777
REMARK INTER:                  -5.708
REMARK INTRA:                  16.486
REMARK UNBOUND:                16.486
REMARK  Name = 
REMARK  5 active torsions:
REMARK  status: ('A' for Active; 'I' for Inactive)
REMARK    1  A    between atoms: C_1  and  O_2
REMARK    2  A    between atoms: O_2  and  C_3
REMARK    3  A    between atoms: C_6  and  C_7
REMARK    4  A    between atoms: C_19  and  O_20
REMARK    5  A    between atoms: O_20  and  C_21
REMARK                            x       y       z     vdW  Elec       q    Type
REMARK                         _______ _______ _______ _____ _____    ______ ____
ROOT
ATOM      1  C   UNL     1       5.735 -14.173  31.039  0.00  0.00    +0.000 A 
ATOM      2  C   UNL     1       4.876 -13.521  31.994  0.00  0.00    +0.000 A 
ATOM      3  C   UNL     1       4.726 -14.065  33.318  0.00  0.00    +0.000 A 
ATOM      4  O   UNL     1       3.968 -13.489  34.160  0.00  0.00    +0.000 OA
ATOM      5  C   UNL     1       5.474 -15.330  33.710  0.00  0.00    +0.000 A 
ATOM      6  C   UNL     1       4.725 -16.300  34.354  0.00  0.00    +0.000 A 
ATOM      7  C   UNL     1       5.499 -17.342  34.918  0.00  0.00    +0.000 A 
ATOM      8  C   UNL     1       6.751 -17.606  34.589  0.00  0.00    +0.000 A 
ATOM      9  C   UNL     1       7.416 -16.635  33.893  0.00  0.00    +0.000 A 
ATOM     10  C   UNL     1       6.756 -15.526  33.422  0.00  0.00    +0.000 A 
ATOM     11  O   UNL     1       5.876 -13.665  29.802  0.00  0.00    +0.000 OA
ENDROOT
BRANCH   1  15
ATOM     12  C   UNL     1       7.908 -17.745  31.914  0.00  0.00    +0.000 A 
ATOM     13  C   UNL     1       8.586 -16.537  31.914  0.00  0.00    +0.000 A 
ATOM     14  C   UNL     1       7.742 -15.405  31.831  0.00  0.00    +0.000 A 
ATOM     15  C   UNL     1       6.483 -15.438  31.431  0.00  0.00    +0.000 A 
ATOM     16  C   UNL     1       5.891 -16.669  31.386  0.00  0.00    +0.000 A 
ATOM     17  C   UNL     1       6.624 -17.814  31.586  0.00  0.00    +0.000 A 
BRANCH  12  19
ATOM     18  C   UNL     1       9.448 -19.603  31.437  0.00  0.00    +0.000 C 
ATOM     19  O   UNL     1       8.602 -18.908  32.341  0.00  0.00    +0.000 OA
ENDBRANCH  12  19
BRANCH  17  20
ATOM     20  O   UNL     1       6.002 -19.081  31.440  0.00  0.00    +0.000 OA
ATOM     21  C   UNL     1       4.642 -19.252  31.814  0.00  0.00    +0.000 C 
ENDBRANCH  17  20
ENDBRANCH   1  15
TORSDOF 3
ENDMDL
