MODEL 1
REMARK VINA RESULT:    -5.092      0.000      0.000
REMARK INTER + INTRA:          12.996
REMARK INTER:                  -5.872
REMARK INTRA:                  18.868
REMARK UNBOUND:                18.981
REMARK  Name = 
REMARK  5 active torsions:
REMARK  status: ('A' for Active; 'I' for Inactive)
REMARK    1  A    between atoms: C_1  and  O_2
REMARK    2  A    between atoms: O_2  and  C_3
REMARK    3  A    between atoms: C_5  and  O_6
REMARK    4  A    between atoms: O_6  and  C_7
REMARK    5  A    between atoms: C_9  and  C_10
REMARK                            x       y       z     vdW  Elec       q    Type
REMARK                         _______ _______ _______ _____ _____    ______ ____
ROOT
ATOM      1  C   UNL     1       2.967 -17.064  31.807  0.00  0.00    +0.000 A 
ATOM      2  C   UNL     1       2.948 -18.186  32.711  0.00  0.00    +0.000 A 
ATOM      3  C   UNL     1       3.942 -18.289  33.749  0.00  0.00    +0.000 A 
ATOM      4  O   UNL     1       3.925 -19.279  34.546  0.00  0.00    +0.000 OA
ATOM      5  C   UNL     1       5.008 -17.216  33.890  0.00  0.00    +0.000 A 
ATOM      6  C   UNL     1       6.326 -17.592  34.088  0.00  0.00    +0.000 A 
ATOM      7  C   UNL     1       7.170 -16.531  34.494  0.00  0.00    +0.000 A 
ATOM      8  C   UNL     1       6.879 -15.250  34.362  0.00  0.00    +0.000 A 
ATOM      9  C   UNL     1       5.572 -14.947  34.100  0.00  0.00    +0.000 A 
ATOM     10  C   UNL     1       4.660 -15.937  33.823  0.00  0.00    +0.000 A 
ATOM     11  O   UNL     1       2.039 -16.966  30.837  0.00  0.00    +0.000 OA
ENDROOT
BRANCH   1  16
ATOM     12  C   UNL     1       4.590 -13.787  32.537  0.00  0.00    +0.000 A 
ATOM     13  C   UNL     1       5.917 -14.002  32.199  0.00  0.00    +0.000 A 
ATOM     14  C   UNL     1       6.148 -15.230  31.536  0.00  0.00    +0.000 A 
ATOM     15  C   UNL     1       5.311 -16.252  31.539  0.00  0.00    +0.000 A 
ATOM     16  C   UNL     1       4.033 -15.991  31.948  0.00  0.00    +0.000 A 
ATOM     17  C   UNL     1       3.699 -14.770  32.485  0.00  0.00    +0.000 A 
BRANCH  12  19
ATOM     18  C   UNL     1       2.809 -12.495  33.636  0.00  0.00    +0.000 C 
ATOM     19  O   UNL     1       4.123 -12.571  33.100  0.00  0.00    +0.000 OA
ENDBRANCH  12  19
BRANCH  14  20
ATOM     20  O   UNL     1       7.365 -15.375  30.820  0.00  0.00    +0.000 OA
ATOM     21  C   UNL     1       8.129 -16.565  30.952  0.00  0.00    +0.000 C 
ENDBRANCH  14  20
ENDBRANCH   1  16
TORSDOF 3
ENDMDL
MODEL 2
REMARK VINA RESULT:    -4.967      1.953      4.193
REMARK INTER + INTRA:          13.143
REMARK INTER:                  -5.767
REMARK INTRA:                  18.910
REMARK UNBOUND:                18.981
REMARK  Name = 
REMARK  5 active torsions:
REMARK  status: ('A' for Active; 'I' for Inactive)
REMARK    1  A    between atoms: C_1  and  O_2
REMARK    2  A    between atoms: O_2  and  C_3
REMARK    3  A    between atoms: C_5  and  O_6
REMARK    4  A    between atoms: O_6  and  C_7
REMARK    5  A    between atoms: C_9  and  C_10
REMARK                            x       y       z     vdW  Elec       q    Type
REMARK                         _______ _______ _______ _____ _____    ______ ____
ROOT
ATOM      1  C   UNL     1       6.118 -18.989  30.593  0.00  0.00    +0.000 A 
ATOM      2  C   UNL     1       7.542 -19.033  30.375  0.00  0.00    +0.000 A 
ATOM      3  C   UNL     1       8.423 -18.266  31.217  0.00  0.00    +0.000 A 
ATOM      4  O   UNL     1       9.678 -18.307  31.025  0.00  0.00    +0.000 OA
ATOM      5  C   UNL     1       7.851 -17.411  32.335  0.00  0.00    +0.000 A 
ATOM      6  C   UNL     1       8.324 -16.121  32.511  0.00  0.00    +0.000 A 
ATOM      7  C   UNL     1       7.941 -15.533  33.740  0.00  0.00    +0.000 A 
ATOM      8  C   UNL     1       6.955 -15.967  34.503  0.00  0.00    +0.000 A 
ATOM      9  C   UNL     1       6.486 -17.223  34.235  0.00  0.00    +0.000 A 
ATOM     10  C   UNL     1       6.910 -17.913  33.126  0.00  0.00    +0.000 A 
ATOM     11  O   UNL     1       5.294 -19.704  29.805  0.00  0.00    +0.000 OA
ENDROOT
BRANCH   1  16
ATOM     12  C   UNL     1       4.498 -18.018  33.808  0.00  0.00    +0.000 A 
ATOM     13  C   UNL     1       4.474 -16.635  33.753  0.00  0.00    +0.000 A 
ATOM     14  C   UNL     1       4.845 -16.105  32.494  0.00  0.00    +0.000 A 
ATOM     15  C   UNL     1       5.499 -16.774  31.563  0.00  0.00    +0.000 A 
ATOM     16  C   UNL     1       5.547 -18.133  31.710  0.00  0.00    +0.000 A 
ATOM     17  C   UNL     1       5.083 -18.735  32.855  0.00  0.00    +0.000 A 
BRANCH  12  19
ATOM     18  C   UNL     1       3.329 -19.966  34.752  0.00  0.00    +0.000 C 
ATOM     19  O   UNL     1       4.050 -18.756  34.936  0.00  0.00    +0.000 OA
ENDBRANCH  12  19
BRANCH  14  20
ATOM     20  O   UNL     1       4.491 -14.758  32.215  0.00  0.00    +0.000 OA
ATOM     21  C   UNL     1       4.152 -13.879  33.278  0.00  0.00    +0.000 C 
ENDBRANCH  14  20
ENDBRANCH   1  16
TORSDOF 3
ENDMDL
MODEL 3
REMARK VINA RESULT:    -4.898      1.845      4.209
REMARK INTER + INTRA:          13.224
REMARK INTER:                  -5.697
REMARK INTRA:                  18.921
REMARK UNBOUND:                18.981
REMARK  Name = 
REMARK  5 active torsions:
REMARK  status: ('A' for Active; 'I' for Inactive)
REMARK    1  A    between atoms: C_1  and  O_2
REMARK    2  A    between atoms: O_2  and  C_3
REMARK    3  A    between atoms: C_5  and  O_6
REMARK    4  A    between atoms: O_6  and  C_7
REMARK    5  A    between atoms: C_9  and  C_10
REMARK                            x       y       z     vdW  Elec       q    Type
REMARK                         _______ _______ _______ _____ _____    ______ ____
ROOT
ATOM      1  C   UNL     1       5.243 -14.205  30.922  0.00  0.00    +0.000 A 
ATOM      2  C   UNL     1       4.523 -13.556  31.987  0.00  0.00    +0.000 A 
ATOM      3  C   UNL     1       4.596 -14.078  33.328  0.00  0.00    +0.000 A 
ATOM      4  O   UNL     1       3.961 -13.505  34.267  0.00  0.00    +0.000 OA
ATOM      5  C   UNL     1       5.433 -15.313  33.617  0.00  0.00    +0.000 A 
ATOM      6  C   UNL     1       4.908 -16.317  34.414  0.00  0.00    +0.000 A 
ATOM      7  C   UNL     1       5.866 -17.263  34.850  0.00  0.00    +0.000 A 
ATOM      8  C   UNL     1       7.055 -17.432  34.302  0.00  0.00    +0.000 A 
ATOM      9  C   UNL     1       7.489 -16.437  33.470  0.00  0.00    +0.000 A 
ATOM     10  C   UNL     1       6.653 -15.410  33.103  0.00  0.00    +0.000 A 
ATOM     11  O   UNL     1       5.174 -13.718  29.669  0.00  0.00    +0.000 OA
ENDROOT
BRANCH   1  16
ATOM     12  C   UNL     1       8.205 -16.416  31.410  0.00  0.00    +0.000 A 
ATOM     13  C   UNL     1       7.644 -17.648  31.700  0.00  0.00    +0.000 A 
ATOM     14  C   UNL     1       6.242 -17.699  31.512  0.00  0.00    +0.000 A 
ATOM     15  C   UNL     1       5.460 -16.639  31.429  0.00  0.00    +0.000 A 
ATOM     16  C   UNL     1       6.079 -15.440  31.211  0.00  0.00    +0.000 A 
ATOM     17  C   UNL     1       7.449 -15.336  31.248  0.00  0.00    +0.000 A 
BRANCH  12  19
ATOM     18  C   UNL     1      10.383 -16.481  30.267  0.00  0.00    +0.000 C 
ATOM     19  O   UNL     1       9.606 -16.182  31.419  0.00  0.00    +0.000 OA
ENDBRANCH  12  19
BRANCH  14  20
ATOM     20  O   UNL     1       5.636 -18.978  31.406  0.00  0.00    +0.000 OA
ATOM     21  C   UNL     1       4.343 -19.198  31.951  0.00  0.00    +0.000 C 
ENDBRANCH  14  20
ENDBRANCH   1  16
TORSDOF 3
ENDMDL
MODEL 4
REMARK VINA RESULT:    -4.826      1.720      4.108
REMARK INTER + INTRA:          13.309
REMARK INTER:                  -5.672
REMARK INTRA:                  18.981
REMARK UNBOUND:                18.981
REMARK  Name = 
REMARK  5 active torsions:
REMARK  status: ('A' for Active; 'I' for Inactive)
REMARK    1  A    between atoms: C_1  and  O_2
REMARK    2  A    between atoms: O_2  and  C_3
REMARK    3  A    between atoms: C_5  and  O_6
REMARK    4  A    between atoms: O_6  and  C_7
REMARK    5  A    between atoms: C_9  and  C_10
REMARK                            x       y       z     vdW  Elec       q    Type
REMARK                         _______ _______ _______ _____ _____    ______ ____
ROOT
ATOM      1  C   UNL     1       7.158 -15.959  34.224  0.00  0.00    +0.000 A 
ATOM      2  C   UNL     1       6.854 -17.364  34.134  0.00  0.00    +0.000 A 
ATOM      3  C   UNL     1       5.683 -17.803  33.420  0.00  0.00    +0.000 A 
ATOM      4  O   UNL     1       5.416 -19.043  33.341  0.00  0.00    +0.000 OA
ATOM      5  C   UNL     1       4.768 -16.785  32.762  0.00  0.00    +0.000 A 
ATOM      6  C   UNL     1       3.396 -16.908  32.912  0.00  0.00    +0.000 A 
ATOM      7  C   UNL     1       2.648 -16.094  32.030  0.00  0.00    +0.000 A 
ATOM      8  C   UNL     1       3.133 -15.054  31.377  0.00  0.00    +0.000 A 
ATOM      9  C   UNL     1       4.495 -14.951  31.322  0.00  0.00    +0.000 A 
ATOM     10  C   UNL     1       5.296 -15.794  32.054  0.00  0.00    +0.000 A 
ATOM     11  O   UNL     1       8.252 -15.548  34.891  0.00  0.00    +0.000 OA
ENDROOT
BRANCH   1  16
ATOM     12  C   UNL     1       5.895 -13.373  31.852  0.00  0.00    +0.000 A 
ATOM     13  C   UNL     1       4.639 -13.066  32.348  0.00  0.00    +0.000 A 
ATOM     14  C   UNL     1       4.368 -13.634  33.615  0.00  0.00    +0.000 A 
ATOM     15  C   UNL     1       5.040 -14.641  34.143  0.00  0.00    +0.000 A 
ATOM     16  C   UNL     1       6.243 -14.940  33.566  0.00  0.00    +0.000 A 
ATOM     17  C   UNL     1       6.635 -14.331  32.398  0.00  0.00    +0.000 A 
BRANCH  12  19
ATOM     18  C   UNL     1       6.692 -11.421  30.585  0.00  0.00    +0.000 C 
ATOM     19  O   UNL     1       6.413 -12.812  30.655  0.00  0.00    +0.000 OA
ENDBRANCH  12  19
BRANCH  14  20
ATOM     20  O   UNL     1       3.299 -13.085  34.370  0.00  0.00    +0.000 OA
ATOM     21  C   UNL     1       2.607 -11.940  33.891  0.00  0.00    +0.000 C 
ENDBRANCH  14  20
ENDBRANCH   1  16
TORSDOF 3
ENDMDL
