MODEL 1
REMARK VINA RESULT:    -4.966      0.000      0.000
REMARK INTER + INTRA:          13.441
REMARK INTER:                  -5.737
REMARK INTRA:                  19.177
REMARK UNBOUND:                19.278
REMARK  Name = 
REMARK  5 active torsions:
REMARK  status: ('A' for Active; 'I' for Inactive)
REMARK    1  A    between atoms: C_1  and  O_2
REMARK    2  A    between atoms: O_2  and  C_3
REMARK    3  A    between atoms: C_6  and  O_7
REMARK    4  A    between atoms: O_7  and  C_8
REMARK    5  A    between atoms: C_9  and  C_10
REMARK                            x       y       z     vdW  Elec       q    Type
REMARK                         _______ _______ _______ _____ _____    ______ ____
ROOT
ATOM      1  C   UNL     1       2.894 -17.181  31.977  0.00  0.00    +0.000 A 
ATOM      2  C   UNL     1       2.925 -18.294  32.890  0.00  0.00    +0.000 A 
ATOM      3  C   UNL     1       3.956 -18.374  33.892  0.00  0.00    +0.000 A 
ATOM      4  O   UNL     1       3.984 -19.356  34.698  0.00  0.00    +0.000 OA
ATOM      5  C   UNL     1       5.013 -17.285  33.984  0.00  0.00    +0.000 A 
ATOM      6  C   UNL     1       6.343 -17.637  34.136  0.00  0.00    +0.000 A 
ATOM      7  C   UNL     1       7.184 -16.559  34.502  0.00  0.00    +0.000 A 
ATOM      8  C   UNL     1       6.867 -15.284  34.368  0.00  0.00    +0.000 A 
ATOM      9  C   UNL     1       5.546 -15.005  34.152  0.00  0.00    +0.000 A 
ATOM     10  C   UNL     1       4.641 -16.012  33.917  0.00  0.00    +0.000 A 
ATOM     11  O   UNL     1       1.930 -17.106  31.040  0.00  0.00    +0.000 OA
ENDROOT
BRANCH   1  16
ATOM     12  C   UNL     1       4.532 -13.920  32.743  0.00  0.00    +0.000 A 
ATOM     13  C   UNL     1       5.813 -14.076  32.239  0.00  0.00    +0.000 A 
ATOM     14  C   UNL     1       5.987 -15.249  31.469  0.00  0.00    +0.000 A 
ATOM     15  C   UNL     1       5.175 -16.290  31.495  0.00  0.00    +0.000 A 
ATOM     16  C   UNL     1       3.950 -16.091  32.069  0.00  0.00    +0.000 A 
ATOM     17  C   UNL     1       3.659 -14.921  32.726  0.00  0.00    +0.000 A 
BRANCH  12  19
ATOM     18  C   UNL     1       2.869 -12.464  33.824  0.00  0.00    +0.000 C 
ATOM     19  O   UNL     1       4.104 -12.625  33.140  0.00  0.00    +0.000 OA
ENDBRANCH  12  19
BRANCH  15  20
ATOM     20  O   UNL     1       5.555 -17.550  30.959  0.00  0.00    +0.000 OA
ATOM     21  C   UNL     1       6.875 -17.746  30.478  0.00  0.00    +0.000 C 
ENDBRANCH  15  20
ENDBRANCH   1  16
TORSDOF 3
ENDMDL
MODEL 2
REMARK VINA RESULT:    -4.866      1.858      4.101
REMARK INTER + INTRA:          13.559
REMARK INTER:                  -5.653
REMARK INTRA:                  19.212
REMARK UNBOUND:                19.278
REMARK  Name = 
REMARK  5 active torsions:
REMARK  status: ('A' for Active; 'I' for Inactive)
REMARK    1  A    between atoms: C_1  and  O_2
REMARK    2  A    between atoms: O_2  and  C_3
REMARK    3  A    between atoms: C_6  and  O_7
REMARK    4  A    between atoms: O_7  and  C_8
REMARK    5  A    between atoms: C_9  and  C_10
REMARK                            x       y       z     vdW  Elec       q    Type
REMARK                         _______ _______ _______ _____ _____    ______ ____
ROOT
ATOM      1  C   UNL     1       5.246 -14.243  30.895  0.00  0.00    +0.000 A 
ATOM      2  C   UNL     1       4.513 -13.591  31.949  0.00  0.00    +0.000 A 
ATOM      3  C   UNL     1       4.586 -14.095  33.296  0.00  0.00    +0.000 A 
ATOM      4  O   UNL     1       3.940 -13.519  34.226  0.00  0.00    +0.000 OA
ATOM      5  C   UNL     1       5.436 -15.317  33.605  0.00  0.00    +0.000 A 
ATOM      6  C   UNL     1       4.922 -16.319  34.411  0.00  0.00    +0.000 A 
ATOM      7  C   UNL     1       5.890 -17.246  34.862  0.00  0.00    +0.000 A 
ATOM      8  C   UNL     1       7.084 -17.406  34.319  0.00  0.00    +0.000 A 
ATOM      9  C   UNL     1       7.507 -16.414  33.479  0.00  0.00    +0.000 A 
ATOM     10  C   UNL     1       6.659 -15.403  33.096  0.00  0.00    +0.000 A 
ATOM     11  O   UNL     1       5.178 -13.772  29.636  0.00  0.00    +0.000 OA
ENDROOT
BRANCH   1  16
ATOM     12  C   UNL     1       8.226 -16.383  31.563  0.00  0.00    +0.000 A 
ATOM     13  C   UNL     1       7.685 -17.647  31.734  0.00  0.00    +0.000 A 
ATOM     14  C   UNL     1       6.311 -17.731  31.407  0.00  0.00    +0.000 A 
ATOM     15  C   UNL     1       5.502 -16.693  31.299  0.00  0.00    +0.000 A 
ATOM     16  C   UNL     1       6.096 -15.466  31.204  0.00  0.00    +0.000 A 
ATOM     17  C   UNL     1       7.450 -15.320  31.381  0.00  0.00    +0.000 A 
BRANCH  12  19
ATOM     18  C   UNL     1      10.212 -16.104  30.137  0.00  0.00    +0.000 C 
ATOM     19  O   UNL     1       9.634 -16.253  31.426  0.00  0.00    +0.000 OA
ENDBRANCH  12  19
BRANCH  15  20
ATOM     20  O   UNL     1       4.089 -16.843  31.287  0.00  0.00    +0.000 OA
ATOM     21  C   UNL     1       3.510 -18.117  31.522  0.00  0.00    +0.000 C 
ENDBRANCH  15  20
ENDBRANCH   1  16
TORSDOF 3
ENDMDL
MODEL 3
REMARK VINA RESULT:    -4.753      2.140      4.086
REMARK INTER + INTRA:          13.691
REMARK INTER:                  -5.537
REMARK INTRA:                  19.228
REMARK UNBOUND:                19.278
REMARK  Name = 
REMARK  5 active torsions:
REMARK  status: ('A' for Active; 'I' for Inactive)
REMARK    1  A    between atoms: C_1  and  O_2
REMARK    2  A    between atoms: O_2  and  C_3
REMARK    3  A    between atoms: C_6  and  O_7
REMARK    4  A    between atoms: O_7  and  C_8
REMARK    5  A    between atoms: C_9  and  C_10
REMARK                            x       y       z     vdW  Elec       q    Type
REMARK                         _______ _______ _______ _____ _____    ______ ____
ROOT
ATOM      1  C   UNL     1       6.234 -19.078  30.641  0.00  0.00    +0.000 A 
ATOM      2  C   UNL     1       7.659 -19.087  30.434  0.00  0.00    +0.000 A 
ATOM      3  C   UNL     1       8.515 -18.293  31.277  0.00  0.00    +0.000 A 
ATOM      4  O   UNL     1       9.772 -18.301  31.094  0.00  0.00    +0.000 OA
ATOM      5  C   UNL     1       7.913 -17.445  32.387  0.00  0.00    +0.000 A 
ATOM      6  C   UNL     1       8.349 -16.142  32.560  0.00  0.00    +0.000 A 
ATOM      7  C   UNL     1       7.941 -15.559  33.783  0.00  0.00    +0.000 A 
ATOM      8  C   UNL     1       6.960 -16.016  34.540  0.00  0.00    +0.000 A 
ATOM      9  C   UNL     1       6.528 -17.286  34.275  0.00  0.00    +0.000 A 
ATOM     10  C   UNL     1       6.979 -17.969  33.171  0.00  0.00    +0.000 A 
ATOM     11  O   UNL     1       5.435 -19.820  29.853  0.00  0.00    +0.000 OA
ENDROOT
BRANCH   1  16
ATOM     12  C   UNL     1       4.694 -18.117  33.898  0.00  0.00    +0.000 A 
ATOM     13  C   UNL     1       4.513 -16.748  33.779  0.00  0.00    +0.000 A 
ATOM     14  C   UNL     1       4.755 -16.250  32.477  0.00  0.00    +0.000 A 
ATOM     15  C   UNL     1       5.427 -16.894  31.541  0.00  0.00    +0.000 A 
ATOM     16  C   UNL     1       5.632 -18.229  31.750  0.00  0.00    +0.000 A 
ATOM     17  C   UNL     1       5.303 -18.816  32.947  0.00  0.00    +0.000 A 
BRANCH  12  19
ATOM     18  C   UNL     1       3.310 -19.966  34.744  0.00  0.00    +0.000 C 
ATOM     19  O   UNL     1       4.080 -18.797  34.983  0.00  0.00    +0.000 OA
ENDBRANCH  12  19
BRANCH  15  20
ATOM     20  O   UNL     1       5.912 -16.235  30.379  0.00  0.00    +0.000 OA
ATOM     21  C   UNL     1       5.816 -14.823  30.274  0.00  0.00    +0.000 C 
ENDBRANCH  15  20
ENDBRANCH   1  16
TORSDOF 3
ENDMDL
MODEL 4
REMARK VINA RESULT:    -4.744      1.532      3.490
REMARK INTER + INTRA:          13.701
REMARK INTER:                  -5.607
REMARK INTRA:                  19.308
REMARK UNBOUND:                19.278
REMARK  Name = 
REMARK  5 active torsions:
REMARK  status: ('A' for Active; 'I' for Inactive)
REMARK    1  A    between atoms: C_1  and  O_2
REMARK    2  A    between atoms: O_2  and  C_3
REMARK    3  A    between atoms: C_6  and  O_7
REMARK    4  A    between atoms: O_7  and  C_8
REMARK    5  A    between atoms: C_9  and  C_10
REMARK                            x       y       z     vdW  Elec       q    Type
REMARK                         _______ _______ _______ _____ _____    ______ ____
ROOT
ATOM      1  C   UNL     1       5.580 -16.551  34.408  0.00  0.00    +0.000 A 
ATOM      2  C   UNL     1       6.954 -16.713  34.010  0.00  0.00    +0.000 A 
ATOM      3  C   UNL     1       7.482 -15.945  32.913  0.00  0.00    +0.000 A 
ATOM      4  O   UNL     1       8.695 -16.088  32.563  0.00  0.00    +0.000 OA
ATOM      5  C   UNL     1       6.588 -14.964  32.173  0.00  0.00    +0.000 A 
ATOM      6  C   UNL     1       6.608 -14.934  30.788  0.00  0.00    +0.000 A 
ATOM      7  C   UNL     1       5.969 -13.802  30.229  0.00  0.00    +0.000 A 
ATOM      8  C   UNL     1       5.120 -13.025  30.878  0.00  0.00    +0.000 A 
ATOM      9  C   UNL     1       5.099 -13.150  32.239  0.00  0.00    +0.000 A 
ATOM     10  C   UNL     1       5.801 -14.151  32.867  0.00  0.00    +0.000 A 
ATOM     11  O   UNL     1       5.086 -17.269  35.434  0.00  0.00    +0.000 OA
ENDROOT
BRANCH   1  16
ATOM     12  C   UNL     1       3.624 -13.477  33.614  0.00  0.00    +0.000 A 
ATOM     13  C   UNL     1       3.052 -13.766  32.386  0.00  0.00    +0.000 A 
ATOM     14  C   UNL     1       3.214 -15.111  31.981  0.00  0.00    +0.000 A 
ATOM     15  C   UNL     1       4.104 -15.945  32.488  0.00  0.00    +0.000 A 
ATOM     16  C   UNL     1       4.685 -15.570  33.668  0.00  0.00    +0.000 A 
ATOM     17  C   UNL     1       4.471 -14.319  34.195  0.00  0.00    +0.000 A 
BRANCH  12  19
ATOM     18  C   UNL     1       2.322 -11.391  33.696  0.00  0.00    +0.000 C 
ATOM     19  O   UNL     1       3.175 -12.334  34.328  0.00  0.00    +0.000 OA
ENDBRANCH  12  19
BRANCH  15  20
ATOM     20  O   UNL     1       4.442 -17.164  31.842  0.00  0.00    +0.000 OA
ATOM     21  C   UNL     1       3.522 -18.245  31.842  0.00  0.00    +0.000 C 
ENDBRANCH  15  20
ENDBRANCH   1  16
TORSDOF 3
ENDMDL
MODEL 5
REMARK VINA RESULT:    -4.674      2.111      3.996
REMARK INTER + INTRA:          13.784
REMARK INTER:                  -5.493
REMARK INTRA:                  19.278
REMARK UNBOUND:                19.278
REMARK  Name = 
REMARK  5 active torsions:
REMARK  status: ('A' for Active; 'I' for Inactive)
REMARK    1  A    between atoms: C_1  and  O_2
REMARK    2  A    between atoms: O_2  and  C_3
REMARK    3  A    between atoms: C_6  and  O_7
REMARK    4  A    between atoms: O_7  and  C_8
REMARK    5  A    between atoms: C_9  and  C_10
REMARK                            x       y       z     vdW  Elec       q    Type
REMARK                         _______ _______ _______ _____ _____    ______ ____
ROOT
ATOM      1  C   UNL     1       6.231 -14.696  29.608  0.00  0.00    +0.000 A 
ATOM      2  C   UNL     1       7.529 -15.294  29.781  0.00  0.00    +0.000 A 
ATOM      3  C   UNL     1       7.952 -15.732  31.086  0.00  0.00    +0.000 A 
ATOM      4  O   UNL     1       9.098 -16.259  31.238  0.00  0.00    +0.000 OA
ATOM      5  C   UNL     1       7.028 -15.561  32.281  0.00  0.00    +0.000 A 
ATOM      6  C   UNL     1       7.537 -15.069  33.471  0.00  0.00    +0.000 A 
ATOM      7  C   UNL     1       6.669 -15.230  34.577  0.00  0.00    +0.000 A 
ATOM      8  C   UNL     1       5.375 -15.475  34.482  0.00  0.00    +0.000 A 
ATOM      9  C   UNL     1       4.922 -15.893  33.262  0.00  0.00    +0.000 A 
ATOM     10  C   UNL     1       5.747 -15.887  32.163  0.00  0.00    +0.000 A 
ATOM     11  O   UNL     1       5.835 -14.287  28.388  0.00  0.00    +0.000 OA
ENDROOT
BRANCH   1  16
ATOM     12  C   UNL     1       3.439 -15.274  32.012  0.00  0.00    +0.000 A 
ATOM     13  C   UNL     1       3.588 -14.249  32.932  0.00  0.00    +0.000 A 
ATOM     14  C   UNL     1       4.543 -13.276  32.556  0.00  0.00    +0.000 A 
ATOM     15  C   UNL     1       5.474 -13.455  31.637  0.00  0.00    +0.000 A 
ATOM     16  C   UNL     1       5.306 -14.525  30.803  0.00  0.00    +0.000 A 
ATOM     17  C   UNL     1       4.314 -15.448  31.028  0.00  0.00    +0.000 A 
BRANCH  12  19
ATOM     18  C   UNL     1       1.001 -15.426  32.299  0.00  0.00    +0.000 C 
ATOM     19  O   UNL     1       2.249 -16.049  32.035  0.00  0.00    +0.000 OA
ENDBRANCH  12  19
BRANCH  15  20
ATOM     20  O   UNL     1       6.591 -12.585  31.522  0.00  0.00    +0.000 OA
ATOM     21  C   UNL     1       6.389 -11.189  31.367  0.00  0.00    +0.000 C 
ENDBRANCH  15  20
ENDBRANCH   1  16
TORSDOF 3
ENDMDL
