MODEL 1
REMARK VINA RESULT:    -5.235      0.000      0.000
REMARK INTER + INTRA:          -7.983
REMARK INTER:                  -7.285
REMARK INTRA:                  -0.697
REMARK UNBOUND:                -0.606
REMARK  Name = 
REMARK  11 active torsions:
REMARK  status: ('A' for Active; 'I' for Inactive)
REMARK    1  A    between atoms: C_1  and  O_2
REMARK    2  A    between atoms: O_2  and  C_3
REMARK    3  A    between atoms: C_6  and  C_7
REMARK    4  A    between atoms: C_8  and  C_9
REMARK    5  A    between atoms: C_9  and  C_11
REMARK    6  A    between atoms: C_13  and  O_14
REMARK    7  A    between atoms: O_14  and  C_15
REMARK    8  A    between atoms: C_16  and  O_17
REMARK    9  A    between atoms: O_17  and  C_18
REMARK   10  A    between atoms: C_19  and  O_20
REMARK   11  A    between atoms: O_20  and  C_21
REMARK                            x       y       z     vdW  Elec       q    Type
REMARK                         _______ _______ _______ _____ _____    ______ ____
ROOT
ATOM      1  C   UNL     1       7.126 -13.813  30.074  0.00  0.00    +0.000 C 
ATOM      2  O   UNL     1       8.041 -14.250  29.308  0.00  0.00    +0.000 OA
ENDROOT
BRANCH   1   3
ATOM      3  C   UNL     1       6.711 -14.614  31.297  0.00  0.00    +0.000 A 
ATOM      4  C   UNL     1       5.588 -14.235  32.014  0.00  0.00    +0.000 A 
ATOM      5  C   UNL     1       5.470 -14.870  33.273  0.00  0.00    +0.000 A 
ATOM      6  C   UNL     1       6.117 -15.967  33.622  0.00  0.00    +0.000 A 
ATOM      7  C   UNL     1       7.176 -16.326  32.835  0.00  0.00    +0.000 A 
ATOM      8  C   UNL     1       7.432 -15.670  31.655  0.00  0.00    +0.000 A 
BRANCH   5   9
ATOM      9  O   UNL     1       4.596 -14.286  34.228  0.00  0.00    +0.000 OA
ATOM     10  C   UNL     1       3.655 -13.303  33.822  0.00  0.00    +0.000 C 
ENDBRANCH   5   9
BRANCH   6  11
ATOM     11  O   UNL     1       5.734 -16.733  34.755  0.00  0.00    +0.000 OA
ATOM     12  C   UNL     1       4.777 -17.773  34.618  0.00  0.00    +0.000 C 
ENDBRANCH   6  11
BRANCH   7  13
ATOM     13  O   UNL     1       8.021 -17.391  33.242  0.00  0.00    +0.000 OA
ATOM     14  C   UNL     1       7.888 -18.672  32.642  0.00  0.00    +0.000 C 
ENDBRANCH   7  13
ENDBRANCH   1   3
BRANCH   1  16
ATOM     15  C   UNL     1       6.760 -11.380  30.493  0.00  0.00    +0.000 C 
ATOM     16  C   UNL     1       6.447 -12.488  29.768  0.00  0.00    +0.000 C 
BRANCH  15  20
ATOM     17  C   UNL     1       4.682  -7.777  29.518  0.00  0.00    +0.000 A 
ATOM     18  C   UNL     1       4.288  -8.490  30.639  0.00  0.00    +0.000 A 
ATOM     19  C   UNL     1       5.172  -9.536  30.993  0.00  0.00    +0.000 A 
ATOM     20  C   UNL     1       6.081 -10.055  30.187  0.00  0.00    +0.000 A 
ATOM     21  C   UNL     1       6.377  -9.336  29.062  0.00  0.00    +0.000 A 
ATOM     22  C   UNL     1       5.642  -8.227  28.718  0.00  0.00    +0.000 A 
BRANCH  17  24
ATOM     23  C   UNL     1       3.370  -6.375  27.982  0.00  0.00    +0.000 C 
ATOM     24  O   UNL     1       4.046  -6.543  29.219  0.00  0.00    +0.000 OA
ENDBRANCH  17  24
ENDBRANCH  15  20
ENDBRANCH   1  16
TORSDOF 7
ENDMDL
MODEL 2
REMARK VINA RESULT:    -5.078      0.983      2.495
REMARK INTER + INTRA:          -7.761
REMARK INTER:                  -7.061
REMARK INTRA:                  -0.701
REMARK UNBOUND:                -0.606
REMARK  Name = 
REMARK  11 active torsions:
REMARK  status: ('A' for Active; 'I' for Inactive)
REMARK    1  A    between atoms: C_1  and  O_2
REMARK    2  A    between atoms: O_2  and  C_3
REMARK    3  A    between atoms: C_6  and  C_7
REMARK    4  A    between atoms: C_8  and  C_9
REMARK    5  A    between atoms: C_9  and  C_11
REMARK    6  A    between atoms: C_13  and  O_14
REMARK    7  A    between atoms: O_14  and  C_15
REMARK    8  A    between atoms: C_16  and  O_17
REMARK    9  A    between atoms: O_17  and  C_18
REMARK   10  A    between atoms: C_19  and  O_20
REMARK   11  A    between atoms: O_20  and  C_21
REMARK                            x       y       z     vdW  Elec       q    Type
REMARK                         _______ _______ _______ _____ _____    ______ ____
ROOT
ATOM      1  C   UNL     1       7.002 -13.948  30.238  0.00  0.00    +0.000 C 
ATOM      2  O   UNL     1       7.937 -14.450  29.537  0.00  0.00    +0.000 OA
ENDROOT
BRANCH   1   3
ATOM      3  C   UNL     1       6.471 -14.700  31.447  0.00  0.00    +0.000 A 
ATOM      4  C   UNL     1       7.350 -15.405  32.253  0.00  0.00    +0.000 A 
ATOM      5  C   UNL     1       6.714 -16.284  33.162  0.00  0.00    +0.000 A 
ATOM      6  C   UNL     1       5.440 -16.217  33.503  0.00  0.00    +0.000 A 
ATOM      7  C   UNL     1       4.637 -15.450  32.705  0.00  0.00    +0.000 A 
ATOM      8  C   UNL     1       5.171 -14.664  31.712  0.00  0.00    +0.000 A 
BRANCH   5   9
ATOM      9  O   UNL     1       7.501 -17.311  33.748  0.00  0.00    +0.000 OA
ATOM     10  C   UNL     1       7.871 -18.447  32.980  0.00  0.00    +0.000 C 
ENDBRANCH   5   9
BRANCH   6  11
ATOM     11  O   UNL     1       4.932 -16.904  34.637  0.00  0.00    +0.000 OA
ATOM     12  C   UNL     1       4.447 -18.232  34.505  0.00  0.00    +0.000 C 
ENDBRANCH   6  11
BRANCH   7  13
ATOM     13  O   UNL     1       3.231 -15.466  32.906  0.00  0.00    +0.000 OA
ATOM     14  C   UNL     1       2.403 -16.259  32.068  0.00  0.00    +0.000 C 
ENDBRANCH   7  13
ENDBRANCH   1   3
BRANCH   1  16
ATOM     15  C   UNL     1       6.670 -11.508  30.641  0.00  0.00    +0.000 C 
ATOM     16  C   UNL     1       6.416 -12.597  29.866  0.00  0.00    +0.000 C 
BRANCH  15  20
ATOM     17  C   UNL     1       4.849  -7.823  29.477  0.00  0.00    +0.000 A 
ATOM     18  C   UNL     1       4.362  -8.482  30.595  0.00  0.00    +0.000 A 
ATOM     19  C   UNL     1       5.167  -9.565  31.017  0.00  0.00    +0.000 A 
ATOM     20  C   UNL     1       6.083 -10.156  30.270  0.00  0.00    +0.000 A 
ATOM     21  C   UNL     1       6.473  -9.486  29.144  0.00  0.00    +0.000 A 
ATOM     22  C   UNL     1       5.820  -8.347  28.737  0.00  0.00    +0.000 A 
BRANCH  17  24
ATOM     23  C   UNL     1       3.258  -6.494  28.155  0.00  0.00    +0.000 C 
ATOM     24  O   UNL     1       4.300  -6.565  29.117  0.00  0.00    +0.000 OA
ENDBRANCH  17  24
ENDBRANCH  15  20
ENDBRANCH   1  16
TORSDOF 7
ENDMDL
MODEL 3
REMARK VINA RESULT:    -5.072      2.049      8.874
REMARK INTER + INTRA:          -7.753
REMARK INTER:                  -7.047
REMARK INTRA:                  -0.706
REMARK UNBOUND:                -0.606
REMARK  Name = 
REMARK  11 active torsions:
REMARK  status: ('A' for Active; 'I' for Inactive)
REMARK    1  A    between atoms: C_1  and  O_2
REMARK    2  A    between atoms: O_2  and  C_3
REMARK    3  A    between atoms: C_6  and  C_7
REMARK    4  A    between atoms: C_8  and  C_9
REMARK    5  A    between atoms: C_9  and  C_11
REMARK    6  A    between atoms: C_13  and  O_14
REMARK    7  A    between atoms: O_14  and  C_15
REMARK    8  A    between atoms: C_16  and  O_17
REMARK    9  A    between atoms: O_17  and  C_18
REMARK   10  A    between atoms: C_19  and  O_20
REMARK   11  A    between atoms: O_20  and  C_21
REMARK                            x       y       z     vdW  Elec       q    Type
REMARK                         _______ _______ _______ _____ _____    ______ ____
ROOT
ATOM      1  C   UNL     1       3.366 -12.259  33.236  0.00  0.00    +0.000 C 
ATOM      2  O   UNL     1       2.430 -12.204  34.094  0.00  0.00    +0.000 OA
ENDROOT
BRANCH   1   3
ATOM      3  C   UNL     1       3.610 -11.086  32.301  0.00  0.00    +0.000 A 
ATOM      4  C   UNL     1       4.558 -11.198  31.297  0.00  0.00    +0.000 A 
ATOM      5  C   UNL     1       4.895  -9.966  30.687  0.00  0.00    +0.000 A 
ATOM      6  C   UNL     1       4.168  -8.867  30.766  0.00  0.00    +0.000 A 
ATOM      7  C   UNL     1       3.203  -8.844  31.735  0.00  0.00    +0.000 A 
ATOM      8  C   UNL     1       2.906  -9.972  32.462  0.00  0.00    +0.000 A 
BRANCH   5   9
ATOM      9  O   UNL     1       6.101  -9.909  29.938  0.00  0.00    +0.000 OA
ATOM     10  C   UNL     1       6.190 -10.568  28.684  0.00  0.00    +0.000 C 
ENDBRANCH   5   9
BRANCH   6  11
ATOM     11  O   UNL     1       4.377  -7.768  29.892  0.00  0.00    +0.000 OA
ATOM     12  C   UNL     1       3.647  -7.678  28.677  0.00  0.00    +0.000 C 
ENDBRANCH   6  11
BRANCH   7  13
ATOM     13  O   UNL     1       2.499  -7.638  31.992  0.00  0.00    +0.000 OA
ATOM     14  C   UNL     1       1.764  -7.489  33.199  0.00  0.00    +0.000 C 
ENDBRANCH   7  13
ENDBRANCH   1   3
BRANCH   1  16
ATOM     15  C   UNL     1       4.592 -14.168  34.275  0.00  0.00    +0.000 C 
ATOM     16  C   UNL     1       4.240 -13.498  33.144  0.00  0.00    +0.000 C 
BRANCH  15  20
ATOM     17  C   UNL     1       6.996 -17.665  33.787  0.00  0.00    +0.000 A 
ATOM     18  C   UNL     1       7.545 -16.431  33.477  0.00  0.00    +0.000 A 
ATOM     19  C   UNL     1       6.750 -15.332  33.878  0.00  0.00    +0.000 A 
ATOM     20  C   UNL     1       5.467 -15.408  34.184  0.00  0.00    +0.000 A 
ATOM     21  C   UNL     1       4.969 -16.660  34.412  0.00  0.00    +0.000 A 
ATOM     22  C   UNL     1       5.729 -17.779  34.168  0.00  0.00    +0.000 A 
BRANCH  17  24
ATOM     23  C   UNL     1       8.323 -19.235  32.437  0.00  0.00    +0.000 C 
ATOM     24  O   UNL     1       7.803 -18.829  33.695  0.00  0.00    +0.000 OA
ENDBRANCH  17  24
ENDBRANCH  15  20
ENDBRANCH   1  16
TORSDOF 7
ENDMDL
MODEL 4
REMARK VINA RESULT:    -5.063      3.187      9.092
REMARK INTER + INTRA:          -7.740
REMARK INTER:                  -6.972
REMARK INTRA:                  -0.768
REMARK UNBOUND:                -0.606
REMARK  Name = 
REMARK  11 active torsions:
REMARK  status: ('A' for Active; 'I' for Inactive)
REMARK    1  A    between atoms: C_1  and  O_2
REMARK    2  A    between atoms: O_2  and  C_3
REMARK    3  A    between atoms: C_6  and  C_7
REMARK    4  A    between atoms: C_8  and  C_9
REMARK    5  A    between atoms: C_9  and  C_11
REMARK    6  A    between atoms: C_13  and  O_14
REMARK    7  A    between atoms: O_14  and  C_15
REMARK    8  A    between atoms: C_16  and  O_17
REMARK    9  A    between atoms: O_17  and  C_18
REMARK   10  A    between atoms: C_19  and  O_20
REMARK   11  A    between atoms: O_20  and  C_21
REMARK                            x       y       z     vdW  Elec       q    Type
REMARK                         _______ _______ _______ _____ _____    ______ ____
ROOT
ATOM      1  C   UNL     1       6.046 -16.974  34.349  0.00  0.00    +0.000 C 
ATOM      2  O   UNL     1       7.179 -17.335  34.798  0.00  0.00    +0.000 OA
ENDROOT
BRANCH   1   3
ATOM      3  C   UNL     1       5.924 -15.703  33.525  0.00  0.00    +0.000 A 
ATOM      4  C   UNL     1       5.027 -14.721  33.912  0.00  0.00    +0.000 A 
ATOM      5  C   UNL     1       4.798 -13.732  32.926  0.00  0.00    +0.000 A 
ATOM      6  C   UNL     1       5.586 -13.513  31.889  0.00  0.00    +0.000 A 
ATOM      7  C   UNL     1       6.497 -14.490  31.598  0.00  0.00    +0.000 A 
ATOM      8  C   UNL     1       6.685 -15.554  32.448  0.00  0.00    +0.000 A 
BRANCH   5   9
ATOM      9  O   UNL     1       3.641 -12.921  33.061  0.00  0.00    +0.000 OA
ATOM     10  C   UNL     1       3.115 -12.641  34.350  0.00  0.00    +0.000 C 
ENDBRANCH   5   9
BRANCH   6  11
ATOM     11  O   UNL     1       5.492 -12.324  31.117  0.00  0.00    +0.000 OA
ATOM     12  C   UNL     1       6.334 -11.219  31.410  0.00  0.00    +0.000 C 
ENDBRANCH   6  11
BRANCH   7  13
ATOM     13  O   UNL     1       7.258 -14.404  30.403  0.00  0.00    +0.000 OA
ATOM     14  C   UNL     1       7.151 -15.423  29.419  0.00  0.00    +0.000 C 
ENDBRANCH   7  13
ENDBRANCH   1   3
BRANCH   1  16
ATOM     15  C   UNL     1       4.443 -18.798  33.774  0.00  0.00    +0.000 C 
ATOM     16  C   UNL     1       4.813 -17.814  34.637  0.00  0.00    +0.000 C 
BRANCH  15  20
ATOM     17  C   UNL     1       0.870 -20.963  34.665  0.00  0.00    +0.000 A 
ATOM     18  C   UNL     1       0.953 -20.282  33.461  0.00  0.00    +0.000 A 
ATOM     19  C   UNL     1       2.245 -19.787  33.170  0.00  0.00    +0.000 A 
ATOM     20  C   UNL     1       3.210 -19.639  34.061  0.00  0.00    +0.000 A 
ATOM     21  C   UNL     1       3.038 -20.281  35.255  0.00  0.00    +0.000 A 
ATOM     22  C   UNL     1       1.849 -20.900  35.561  0.00  0.00    +0.000 A 
BRANCH  17  24
ATOM     23  C   UNL     1      -0.155 -22.975  35.639  0.00  0.00    +0.000 C 
ATOM     24  O   UNL     1      -0.283 -21.742  34.946  0.00  0.00    +0.000 OA
ENDBRANCH  17  24
ENDBRANCH  15  20
ENDBRANCH   1  16
TORSDOF 7
ENDMDL
MODEL 5
REMARK VINA RESULT:    -4.983      1.972      8.535
REMARK INTER + INTRA:          -7.627
REMARK INTER:                  -7.022
REMARK INTRA:                  -0.606
REMARK UNBOUND:                -0.606
REMARK  Name = 
REMARK  11 active torsions:
REMARK  status: ('A' for Active; 'I' for Inactive)
REMARK    1  A    between atoms: C_1  and  O_2
REMARK    2  A    between atoms: O_2  and  C_3
REMARK    3  A    between atoms: C_6  and  C_7
REMARK    4  A    between atoms: C_8  and  C_9
REMARK    5  A    between atoms: C_9  and  C_11
REMARK    6  A    between atoms: C_13  and  O_14
REMARK    7  A    between atoms: O_14  and  C_15
REMARK    8  A    between atoms: C_16  and  O_17
REMARK    9  A    between atoms: O_17  and  C_18
REMARK   10  A    between atoms: C_19  and  O_20
REMARK   11  A    between atoms: O_20  and  C_21
REMARK                            x       y       z     vdW  Elec       q    Type
REMARK                         _______ _______ _______ _____ _____    ______ ____
ROOT
ATOM      1  C   UNL     1       3.439 -12.140  33.000  0.00  0.00    +0.000 C 
ATOM      2  O   UNL     1       2.380 -12.133  33.704  0.00  0.00    +0.000 OA
ENDROOT
BRANCH   1   3
ATOM      3  C   UNL     1       3.818 -10.913  32.186  0.00  0.00    +0.000 A 
ATOM      4  C   UNL     1       3.054  -9.763  32.288  0.00  0.00    +0.000 A 
ATOM      5  C   UNL     1       3.328  -8.802  31.286  0.00  0.00    +0.000 A 
ATOM      6  C   UNL     1       4.417  -8.788  30.539  0.00  0.00    +0.000 A 
ATOM      7  C   UNL     1       5.165  -9.932  30.533  0.00  0.00    +0.000 A 
ATOM      8  C   UNL     1       4.881 -10.966  31.393  0.00  0.00    +0.000 A 
BRANCH   5   9
ATOM      9  O   UNL     1       2.363  -7.783  31.067  0.00  0.00    +0.000 OA
ATOM     10  C   UNL     1       1.723  -7.162  32.172  0.00  0.00    +0.000 C 
ENDBRANCH   5   9
BRANCH   6  11
ATOM     11  O   UNL     1       4.791  -7.646  29.783  0.00  0.00    +0.000 OA
ATOM     12  C   UNL     1       4.299  -7.476  28.462  0.00  0.00    +0.000 C 
ENDBRANCH   6  11
BRANCH   7  13
ATOM     13  O   UNL     1       6.251 -10.053  29.627  0.00  0.00    +0.000 OA
ATOM     14  C   UNL     1       6.111 -10.838  28.452  0.00  0.00    +0.000 C 
ENDBRANCH   7  13
ENDBRANCH   1   3
BRANCH   1  16
ATOM     15  C   UNL     1       4.533 -14.088  34.111  0.00  0.00    +0.000 C 
ATOM     16  C   UNL     1       4.325 -13.373  32.972  0.00  0.00    +0.000 C 
BRANCH  15  20
ATOM     17  C   UNL     1       6.952 -17.596  33.811  0.00  0.00    +0.000 A 
ATOM     18  C   UNL     1       7.451 -16.399  33.322  0.00  0.00    +0.000 A 
ATOM     19  C   UNL     1       6.672 -15.270  33.665  0.00  0.00    +0.000 A 
ATOM     20  C   UNL     1       5.420 -15.322  34.084  0.00  0.00    +0.000 A 
ATOM     21  C   UNL     1       4.965 -16.545  34.490  0.00  0.00    +0.000 A 
ATOM     22  C   UNL     1       5.722 -17.678  34.307  0.00  0.00    +0.000 A 
BRANCH  17  24
ATOM     23  C   UNL     1       8.309 -19.211  32.548  0.00  0.00    +0.000 C 
ATOM     24  O   UNL     1       7.769 -18.756  33.780  0.00  0.00    +0.000 OA
ENDBRANCH  17  24
ENDBRANCH  15  20
ENDBRANCH   1  16
TORSDOF 7
ENDMDL
