MODEL 1
REMARK VINA RESULT:    -5.443      0.000      0.000
REMARK INTER + INTRA:          -7.542
REMARK INTER:                  -7.064
REMARK INTRA:                  -0.478
REMARK UNBOUND:                -0.508
REMARK  Name = 
REMARK  7 active torsions:
REMARK  status: ('A' for Active; 'I' for Inactive)
REMARK    1  A    between atoms: C_1  and  O_2
REMARK    2  A    between atoms: O_2  and  C_3
REMARK    3  A    between atoms: C_5  and  C_6
REMARK    4  A    between atoms: C_7  and  C_8
REMARK    5  A    between atoms: C_8  and  C_10
REMARK    6  A    between atoms: C_13  and  O_14
REMARK    7  A    between atoms: C_19  and  O_20
REMARK                            x       y       z     vdW  Elec       q    Type
REMARK                         _______ _______ _______ _____ _____    ______ ____
ROOT
ATOM      1  C   UNL     1       4.603 -13.677  33.418  0.00  0.00    +0.000 C 
ATOM      2  C   UNL     1       4.835 -12.953  32.289  0.00  0.00    +0.000 C 
ENDROOT
BRANCH   1   5
ATOM      3  C   UNL     1       5.267 -17.291  34.303  0.00  0.00    +0.000 A 
ATOM      4  C   UNL     1       4.618 -16.098  34.090  0.00  0.00    +0.000 A 
ATOM      5  C   UNL     1       5.320 -15.001  33.631  0.00  0.00    +0.000 A 
ATOM      6  C   UNL     1       6.664 -15.100  33.366  0.00  0.00    +0.000 A 
ATOM      7  C   UNL     1       7.320 -16.299  33.547  0.00  0.00    +0.000 A 
ATOM      8  C   UNL     1       6.639 -17.429  34.011  0.00  0.00    +0.000 A 
BRANCH   3  10
ATOM      9  C   UNL     1       3.760 -19.048  33.833  0.00  0.00    +0.000 C 
ATOM     10  O   UNL     1       4.534 -18.324  34.778  0.00  0.00    +0.000 OA
ENDBRANCH   3  10
BRANCH   8  11
ATOM     11  O   UNL     1       7.306 -18.671  34.181  0.00  0.00    +0.000 OA
ATOM     12  H   UNL     1       7.748 -18.885  35.053  0.00  0.00    +0.000 HD
ENDBRANCH   8  11
ENDBRANCH   1   5
BRANCH   2  13
ATOM     13  C   UNL     1       4.119 -11.630  32.076  0.00  0.00    +0.000 C 
ATOM     14  O   UNL     1       2.993 -11.421  32.628  0.00  0.00    +0.000 OA
BRANCH  13  15
ATOM     15  C   UNL     1       4.746 -10.557  31.200  0.00  0.00    +0.000 A 
ATOM     16  C   UNL     1       5.730 -10.973  30.331  0.00  0.00    +0.000 A 
ATOM     17  C   UNL     1       6.411 -10.058  29.521  0.00  0.00    +0.000 A 
ATOM     18  C   UNL     1       6.041  -8.701  29.616  0.00  0.00    +0.000 A 
ATOM     19  C   UNL     1       5.078  -8.294  30.510  0.00  0.00    +0.000 A 
ATOM     20  C   UNL     1       4.426  -9.224  31.295  0.00  0.00    +0.000 A 
BRANCH  18  21
ATOM     21  O   UNL     1       6.628  -7.748  28.855  0.00  0.00    +0.000 OA
ATOM     22  H   UNL     1       6.276  -7.555  27.939  0.00  0.00    +0.000 HD
ENDBRANCH  18  21
ENDBRANCH  13  15
ENDBRANCH   2  13
TORSDOF 6
ENDMDL
MODEL 2
REMARK VINA RESULT:    -5.279      1.179      2.415
REMARK INTER + INTRA:          -7.330
REMARK INTER:                  -6.820
REMARK INTRA:                  -0.510
REMARK UNBOUND:                -0.508
REMARK  Name = 
REMARK  7 active torsions:
REMARK  status: ('A' for Active; 'I' for Inactive)
REMARK    1  A    between atoms: C_1  and  O_2
REMARK    2  A    between atoms: O_2  and  C_3
REMARK    3  A    between atoms: C_5  and  C_6
REMARK    4  A    between atoms: C_7  and  C_8
REMARK    5  A    between atoms: C_8  and  C_10
REMARK    6  A    between atoms: C_13  and  O_14
REMARK    7  A    between atoms: C_19  and  O_20
REMARK                            x       y       z     vdW  Elec       q    Type
REMARK                         _______ _______ _______ _____ _____    ______ ____
ROOT
ATOM      1  C   UNL     1       4.566 -13.217  32.725  0.00  0.00    +0.000 C 
ATOM      2  C   UNL     1       4.462 -13.015  31.383  0.00  0.00    +0.000 C 
ENDROOT
BRANCH   1   5
ATOM      3  C   UNL     1       7.144 -15.896  33.400  0.00  0.00    +0.000 A 
ATOM      4  C   UNL     1       6.547 -14.746  32.940  0.00  0.00    +0.000 A 
ATOM      5  C   UNL     1       5.229 -14.478  33.254  0.00  0.00    +0.000 A 
ATOM      6  C   UNL     1       4.514 -15.347  34.041  0.00  0.00    +0.000 A 
ATOM      7  C   UNL     1       5.111 -16.488  34.533  0.00  0.00    +0.000 A 
ATOM      8  C   UNL     1       6.444 -16.790  34.235  0.00  0.00    +0.000 A 
BRANCH   3  10
ATOM      9  C   UNL     1       8.665 -16.437  31.676  0.00  0.00    +0.000 C 
ATOM     10  O   UNL     1       8.429 -16.119  33.039  0.00  0.00    +0.000 OA
ENDBRANCH   3  10
BRANCH   8  11
ATOM     11  O   UNL     1       7.068 -17.955  34.754  0.00  0.00    +0.000 OA
ATOM     12  H   UNL     1       7.865 -17.870  35.352  0.00  0.00    +0.000 HD
ENDBRANCH   8  11
ENDBRANCH   1   5
BRANCH   2  13
ATOM     13  C   UNL     1       3.799 -11.753  30.855  0.00  0.00    +0.000 C 
ATOM     14  O   UNL     1       2.532 -11.685  30.783  0.00  0.00    +0.000 OA
BRANCH  13  15
ATOM     15  C   UNL     1       4.650 -10.575  30.410  0.00  0.00    +0.000 A 
ATOM     16  C   UNL     1       4.193  -9.323  30.757  0.00  0.00    +0.000 A 
ATOM     17  C   UNL     1       4.871  -8.170  30.349  0.00  0.00    +0.000 A 
ATOM     18  C   UNL     1       6.045  -8.337  29.586  0.00  0.00    +0.000 A 
ATOM     19  C   UNL     1       6.474  -9.592  29.220  0.00  0.00    +0.000 A 
ATOM     20  C   UNL     1       5.780 -10.709  29.640  0.00  0.00    +0.000 A 
BRANCH  18  21
ATOM     21  O   UNL     1       6.778  -7.281  29.167  0.00  0.00    +0.000 OA
ATOM     22  H   UNL     1       6.419  -6.673  28.459  0.00  0.00    +0.000 HD
ENDBRANCH  18  21
ENDBRANCH  13  15
ENDBRANCH   2  13
TORSDOF 6
ENDMDL
MODEL 3
REMARK VINA RESULT:    -5.250      0.965      2.052
REMARK INTER + INTRA:          -7.292
REMARK INTER:                  -6.805
REMARK INTRA:                  -0.487
REMARK UNBOUND:                -0.508
REMARK  Name = 
REMARK  7 active torsions:
REMARK  status: ('A' for Active; 'I' for Inactive)
REMARK    1  A    between atoms: C_1  and  O_2
REMARK    2  A    between atoms: O_2  and  C_3
REMARK    3  A    between atoms: C_5  and  C_6
REMARK    4  A    between atoms: C_7  and  C_8
REMARK    5  A    between atoms: C_8  and  C_10
REMARK    6  A    between atoms: C_13  and  O_14
REMARK    7  A    between atoms: C_19  and  O_20
REMARK                            x       y       z     vdW  Elec       q    Type
REMARK                         _______ _______ _______ _____ _____    ______ ____
ROOT
ATOM      1  C   UNL     1       4.668 -13.864  33.355  0.00  0.00    +0.000 C 
ATOM      2  C   UNL     1       4.939 -13.061  32.290  0.00  0.00    +0.000 C 
ENDROOT
BRANCH   1   5
ATOM      3  C   UNL     1       7.140 -16.676  32.845  0.00  0.00    +0.000 A 
ATOM      4  C   UNL     1       6.493 -15.470  32.721  0.00  0.00    +0.000 A 
ATOM      5  C   UNL     1       5.395 -15.190  33.511  0.00  0.00    +0.000 A 
ATOM      6  C   UNL     1       4.956 -16.105  34.437  0.00  0.00    +0.000 A 
ATOM      7  C   UNL     1       5.616 -17.305  34.591  0.00  0.00    +0.000 A 
ATOM      8  C   UNL     1       6.730 -17.621  33.808  0.00  0.00    +0.000 A 
BRANCH   3  10
ATOM      9  C   UNL     1       8.376 -16.000  30.949  0.00  0.00    +0.000 C 
ATOM     10  O   UNL     1       8.193 -16.906  32.027  0.00  0.00    +0.000 OA
ENDBRANCH   3  10
BRANCH   8  11
ATOM     11  O   UNL     1       7.423 -18.849  33.976  0.00  0.00    +0.000 OA
ATOM     12  H   UNL     1       8.335 -18.966  33.581  0.00  0.00    +0.000 HD
ENDBRANCH   8  11
ENDBRANCH   1   5
BRANCH   2  13
ATOM     13  C   UNL     1       4.213 -11.735  32.134  0.00  0.00    +0.000 C 
ATOM     14  O   UNL     1       3.118 -11.536  32.748  0.00  0.00    +0.000 OA
BRANCH  13  15
ATOM     15  C   UNL     1       4.793 -10.650  31.243  0.00  0.00    +0.000 A 
ATOM     16  C   UNL     1       5.738 -11.051  30.325  0.00  0.00    +0.000 A 
ATOM     17  C   UNL     1       6.376 -10.123  29.495  0.00  0.00    +0.000 A 
ATOM     18  C   UNL     1       6.005  -8.769  29.622  0.00  0.00    +0.000 A 
ATOM     19  C   UNL     1       5.082  -8.377  30.564  0.00  0.00    +0.000 A 
ATOM     20  C   UNL     1       4.472  -9.320  31.367  0.00  0.00    +0.000 A 
BRANCH  18  21
ATOM     21  O   UNL     1       6.551  -7.805  28.846  0.00  0.00    +0.000 OA
ATOM     22  H   UNL     1       6.813  -8.012  27.903  0.00  0.00    +0.000 HD
ENDBRANCH  18  21
ENDBRANCH  13  15
ENDBRANCH   2  13
TORSDOF 6
ENDMDL
MODEL 4
REMARK VINA RESULT:    -4.935      2.147      8.045
REMARK INTER + INTRA:          -6.886
REMARK INTER:                  -6.268
REMARK INTRA:                  -0.618
REMARK UNBOUND:                -0.508
REMARK  Name = 
REMARK  7 active torsions:
REMARK  status: ('A' for Active; 'I' for Inactive)
REMARK    1  A    between atoms: C_1  and  O_2
REMARK    2  A    between atoms: O_2  and  C_3
REMARK    3  A    between atoms: C_5  and  C_6
REMARK    4  A    between atoms: C_7  and  C_8
REMARK    5  A    between atoms: C_8  and  C_10
REMARK    6  A    between atoms: C_13  and  O_14
REMARK    7  A    between atoms: C_19  and  O_20
REMARK                            x       y       z     vdW  Elec       q    Type
REMARK                         _______ _______ _______ _____ _____    ______ ____
ROOT
ATOM      1  C   UNL     1       6.514 -11.666  30.789  0.00  0.00    +0.000 C 
ATOM      2  C   UNL     1       6.456 -12.753  29.972  0.00  0.00    +0.000 C 
ENDROOT
BRANCH   1   5
ATOM      3  C   UNL     1       4.440  -8.519  30.506  0.00  0.00    +0.000 A 
ATOM      4  C   UNL     1       4.929  -9.724  30.953  0.00  0.00    +0.000 A 
ATOM      5  C   UNL     1       5.990 -10.324  30.304  0.00  0.00    +0.000 A 
ATOM      6  C   UNL     1       6.574  -9.713  29.222  0.00  0.00    +0.000 A 
ATOM      7  C   UNL     1       6.113  -8.491  28.782  0.00  0.00    +0.000 A 
ATOM      8  C   UNL     1       5.040  -7.856  29.416  0.00  0.00    +0.000 A 
BRANCH   3  10
ATOM      9  C   UNL     1       2.309  -8.873  31.461  0.00  0.00    +0.000 C 
ATOM     10  O   UNL     1       3.382  -7.992  31.164  0.00  0.00    +0.000 OA
ENDBRANCH   3  10
BRANCH   8  11
ATOM     11  O   UNL     1       4.572  -6.589  28.978  0.00  0.00    +0.000 OA
ATOM     12  H   UNL     1       5.156  -6.010  28.408  0.00  0.00    +0.000 HD
ENDBRANCH   8  11
ENDBRANCH   1   5
BRANCH   2  13
ATOM     13  C   UNL     1       6.979 -14.095  30.457  0.00  0.00    +0.000 C 
ATOM     14  O   UNL     1       7.877 -14.703  29.794  0.00  0.00    +0.000 OA
BRANCH  13  15
ATOM     15  C   UNL     1       6.428 -14.711  31.733  0.00  0.00    +0.000 A 
ATOM     16  C   UNL     1       5.102 -15.080  31.712  0.00  0.00    +0.000 A 
ATOM     17  C   UNL     1       4.481 -15.604  32.851  0.00  0.00    +0.000 A 
ATOM     18  C   UNL     1       5.267 -15.755  34.012  0.00  0.00    +0.000 A 
ATOM     19  C   UNL     1       6.582 -15.355  34.028  0.00  0.00    +0.000 A 
ATOM     20  C   UNL     1       7.163 -14.841  32.886  0.00  0.00    +0.000 A 
BRANCH  18  21
ATOM     21  O   UNL     1       4.759 -16.275  35.152  0.00  0.00    +0.000 OA
ATOM     22  H   UNL     1       3.791 -16.148  35.371  0.00  0.00    +0.000 HD
ENDBRANCH  18  21
ENDBRANCH  13  15
ENDBRANCH   2  13
TORSDOF 6
ENDMDL
MODEL 5
REMARK VINA RESULT:    -4.863      2.346      7.836
REMARK INTER + INTRA:          -6.793
REMARK INTER:                  -6.285
REMARK INTRA:                  -0.508
REMARK UNBOUND:                -0.508
REMARK  Name = 
REMARK  7 active torsions:
REMARK  status: ('A' for Active; 'I' for Inactive)
REMARK    1  A    between atoms: C_1  and  O_2
REMARK    2  A    between atoms: O_2  and  C_3
REMARK    3  A    between atoms: C_5  and  C_6
REMARK    4  A    between atoms: C_7  and  C_8
REMARK    5  A    between atoms: C_8  and  C_10
REMARK    6  A    between atoms: C_13  and  O_14
REMARK    7  A    between atoms: C_19  and  O_20
REMARK                            x       y       z     vdW  Elec       q    Type
REMARK                         _______ _______ _______ _____ _____    ______ ____
ROOT
ATOM      1  C   UNL     1       5.934 -11.727  31.584  0.00  0.00    +0.000 C 
ATOM      2  C   UNL     1       4.925 -12.576  31.922  0.00  0.00    +0.000 C 
ENDROOT
BRANCH   1   5
ATOM      3  C   UNL     1       4.250  -8.504  30.556  0.00  0.00    +0.000 A 
ATOM      4  C   UNL     1       4.546  -9.663  31.233  0.00  0.00    +0.000 A 
ATOM      5  C   UNL     1       5.624 -10.435  30.846  0.00  0.00    +0.000 A 
ATOM      6  C   UNL     1       6.417 -10.040  29.796  0.00  0.00    +0.000 A 
ATOM      7  C   UNL     1       6.148  -8.864  29.129  0.00  0.00    +0.000 A 
ATOM      8  C   UNL     1       5.065  -8.059  29.495  0.00  0.00    +0.000 A 
BRANCH   3  10
ATOM      9  C   UNL     1       1.908  -8.218  30.455  0.00  0.00    +0.000 C 
ATOM     10  O   UNL     1       3.167  -7.802  30.963  0.00  0.00    +0.000 OA
ENDBRANCH   3  10
BRANCH   8  11
ATOM     11  O   UNL     1       4.795  -6.838  28.821  0.00  0.00    +0.000 OA
ATOM     12  H   UNL     1       5.540  -6.200  28.625  0.00  0.00    +0.000 HD
ENDBRANCH   8  11
ENDBRANCH   1   5
BRANCH   2  13
ATOM     13  C   UNL     1       5.236 -13.868  32.659  0.00  0.00    +0.000 C 
ATOM     14  O   UNL     1       4.560 -14.190  33.686  0.00  0.00    +0.000 OA
BRANCH  13  15
ATOM     15  C   UNL     1       6.355 -14.773  32.171  0.00  0.00    +0.000 A 
ATOM     16  C   UNL     1       7.218 -15.253  33.131  0.00  0.00    +0.000 A 
ATOM     17  C   UNL     1       8.315 -16.048  32.782  0.00  0.00    +0.000 A 
ATOM     18  C   UNL     1       8.493 -16.351  31.416  0.00  0.00    +0.000 A 
ATOM     19  C   UNL     1       7.642 -15.840  30.465  0.00  0.00    +0.000 A 
ATOM     20  C   UNL     1       6.569 -15.058  30.845  0.00  0.00    +0.000 A 
BRANCH  18  21
ATOM     21  O   UNL     1       9.512 -17.131  30.988  0.00  0.00    +0.000 OA
ATOM     22  H   UNL     1       9.351 -18.098  30.789  0.00  0.00    +0.000 HD
ENDBRANCH  18  21
ENDBRANCH  13  15
ENDBRANCH   2  13
TORSDOF 6
ENDMDL
