REMARK  Name = 
REMARK  12 active torsions:
REMARK  status: ('A' for Active; 'I' for Inactive)
REMARK    1  A    between atoms: C_1  and  C_2
REMARK    2  A    between atoms: C_2  and  O_4
REMARK    3  A    between atoms: O_4  and  C_5
REMARK    4  A    between atoms: C_8  and  C_9
REMARK    5  A    between atoms: C_13  and  C_14
REMARK    6  A    between atoms: C_21  and  C_22
REMARK    7  A    between atoms: C_23  and  C_24
REMARK    8  A    between atoms: C_27  and  C_28
REMARK    9  A    between atoms: C_31  and  C_32
REMARK   10  A    between atoms: C_33  and  C_34
REMARK   11  A    between atoms: C_33  and  C_35
REMARK   12  A    between atoms: C_35  and  O_37
REMARK                            x       y       z     vdW  Elec       q    Type
REMARK                         _______ _______ _______ _____ _____    ______ ____
ROOT
ATOM      1  C   UNL     1       0.311   2.689   2.612  0.00  0.00    +0.000 C 
ATOM      2  C   UNL     1      -0.652   3.129   1.513  0.00  0.00    +0.000 C 
ATOM      3  C   UNL     1       0.099   3.720   0.335  0.00  0.00    +0.000 C 
ATOM      4  C   UNL     1       1.157   4.645   0.734  0.00  0.00    +0.000 C 
ATOM      5  C   UNL     1       1.174   4.716   2.252  0.00  0.00    +0.000 C 
ATOM      6  C   UNL     1       1.986   4.396   1.910  0.00  0.00    +0.000 C 
ATOM      7  C   UNL     1       2.697   5.680   2.346  0.00  0.00    +0.000 C 
ATOM      8  C   UNL     1       3.421   6.286   1.140  0.00  0.00    +0.000 C 
ATOM      9  C   UNL     1       2.430   6.529   0.086  0.00  0.00    +0.000 C 
ATOM     10  C   UNL     1       3.180   6.481  -1.235  0.00  0.00    +0.000 C 
ATOM     11  C   UNL     1       1.368   5.726  -0.046  0.00  0.00    +0.000 C 
ATOM     12  C   UNL     1       0.241   6.643   0.400  0.00  0.00    +0.000 C 
ATOM     13  O   UNL     1      -0.668   6.978  -0.422  0.00  0.00    +0.000 OA
ATOM     14  C   UNL     1       0.201   7.158   1.830  0.00  0.00    +0.000 C 
ATOM     15  C   UNL     1       1.174   6.799   2.710  0.00  0.00    +0.000 C 
ATOM     16  C   UNL     1       2.363   5.888   2.397  0.00  0.00    +0.000 C 
ATOM     17  C   UNL     1       2.200   5.350   0.971  0.00  0.00    +0.000 C 
ATOM     18  C   UNL     1       2.341   6.492  -0.022  0.00  0.00    +0.000 C 
ATOM     19  C   UNL     1       3.283   4.301   0.705  0.00  0.00    +0.000 C 
ATOM     20  C   UNL     1       3.118   3.717  -0.689  0.00  0.00    +0.000 C 
ATOM     21  C   UNL     1       3.155   3.245   1.716  0.00  0.00    +0.000 C 
ATOM     22  C   UNL     1       2.727   3.535   2.950  0.00  0.00    +0.000 C 
ATOM     23  C   UNL     1       2.426   4.787   3.354  0.00  0.00    +0.000 C 
ATOM     24  C   UNL     1       1.468   5.684   2.587  0.00  0.00    +0.000 C 
ATOM     25  C   UNL     1       2.204   5.002   4.782  0.00  0.00    +0.000 C 
ATOM     26  C   UNL     1       1.115   6.017   5.070  0.00  0.00    +0.000 C 
ATOM     27  C   UNL     1       1.256   7.243   4.172  0.00  0.00    +0.000 C 
ATOM     28  C   UNL     1       2.598   7.911   4.428  0.00  0.00    +0.000 C 
ATOM     29  C   UNL     1       1.125   3.900   3.074  0.00  0.00    +0.000 C 
ATOM     30  C   UNL     1       2.020   3.499   4.235  0.00  0.00    +0.000 C 
ENDROOT
BRANCH  29  31
ATOM     31  C   UNL     1       0.186   5.006   3.525  0.00  0.00    +0.000 C 
ATOM     32  O   UNL     1      -0.716   5.234   2.659  0.00  0.00    +0.000 OA
BRANCH  31  33
ATOM     33  O   UNL     1       0.080   5.568   4.825  0.00  0.00    +0.000 OA
ATOM     34  H   UNL     1      -0.705   6.142   5.059  0.00  0.00    +0.000 HD
ENDBRANCH  31  33
ENDBRANCH  29  31
BRANCH   1  35
ATOM     35  O   UNL     1       0.784   1.494   2.007  0.00  0.00    +0.000 OA
BRANCH  35  37
ATOM     36  C   UNL     1       0.948  -0.084   0.015  0.00  0.00    +0.000 C 
ATOM     37  C   UNL     1       0.441   1.195   0.662  0.00  0.00    +0.000 C 
ATOM     38  O   UNL     1      -0.290   1.996  -0.000  0.00  0.00    +0.000 OA
ENDBRANCH  35  37
ENDBRANCH   1  35
TORSDOF 4
