MODEL 1
REMARK VINA RESULT:    -8.123      0.000      0.000
REMARK INTER + INTRA:         -10.425
REMARK INTER:                  -9.790
REMARK INTRA:                  -0.635
REMARK UNBOUND:                -0.640
REMARK  Name = 
REMARK  6 active torsions:
REMARK  status: ('A' for Active; 'I' for Inactive)
REMARK    1  A    between atoms: C_1  and  C_2
REMARK    2  A    between atoms: C_6  and  N_7
REMARK    3  A    between atoms: N_7  and  C_8
REMARK    4  A    between atoms: C_13  and  C_14
REMARK    5  A    between atoms: C_14  and  O_16
REMARK    6  A    between atoms: C_17  and  C_18
REMARK                            x       y       z     vdW  Elec       q    Type
REMARK                         _______ _______ _______ _____ _____    ______ ____
ROOT
ATOM      1  N   UNL     1      37.562   1.656  61.080  0.00  0.00    +0.000 N 
ATOM      2  H   UNL     1      36.984   0.824  61.190  0.00  0.00    +0.000 HD
ENDROOT
BRANCH   1   8
ATOM      3  C   UNL     1      41.922   0.919  63.382  0.00  0.00    +0.000 C 
ATOM      4  C   UNL     1      40.620   1.656  63.224  0.00  0.00    +0.000 A 
ATOM      5  C   UNL     1      40.311   2.696  64.091  0.00  0.00    +0.000 A 
ATOM      6  C   UNL     1      39.129   3.403  63.972  0.00  0.00    +0.000 A 
ATOM      7  C   UNL     1      38.241   3.080  62.960  0.00  0.00    +0.000 A 
ATOM      8  C   UNL     1      38.530   2.021  62.125  0.00  0.00    +0.000 A 
ATOM      9  C   UNL     1      39.698   1.291  62.237  0.00  0.00    +0.000 A 
ATOM     10  C   UNL     1      39.949   0.130  61.301  0.00  0.00    +0.000 C 
ENDBRANCH   1   8
BRANCH   1  11
ATOM     11  C   UNL     1      37.426   2.493  59.880  0.00  0.00    +0.000 A 
ATOM     12  C   UNL     1      38.375   2.404  58.873  0.00  0.00    +0.000 A 
ATOM     13  C   UNL     1      38.301   3.448  57.922  0.00  0.00    +0.000 A 
ATOM     14  C   UNL     1      37.253   4.233  57.751  0.00  0.00    +0.000 A 
ATOM     15  C   UNL     1      36.318   4.225  58.749  0.00  0.00    +0.000 A 
ATOM     16  C   UNL     1      36.393   3.322  59.781  0.00  0.00    +0.000 A 
BRANCH  16  17
ATOM     17  C   UNL     1      35.285   3.270  60.819  0.00  0.00    +0.000 C 
ATOM     18  O   UNL     1      35.065   2.196  61.461  0.00  0.00    +0.000 OA
BRANCH  17  19
ATOM     19  O   UNL     1      34.495   4.423  61.073  0.00  0.00    +0.000 OA
ATOM     20  H   UNL     1      34.773   5.310  60.704  0.00  0.00    +0.000 HD
ENDBRANCH  17  19
ENDBRANCH  16  17
ENDBRANCH   1  11
TORSDOF 4
ENDMDL
MODEL 2
REMARK VINA RESULT:    -8.115      0.775      1.924
REMARK INTER + INTRA:         -10.415
REMARK INTER:                 -10.323
REMARK INTRA:                  -0.092
REMARK UNBOUND:                -0.640
REMARK  Name = 
REMARK  6 active torsions:
REMARK  status: ('A' for Active; 'I' for Inactive)
REMARK    1  A    between atoms: C_1  and  C_2
REMARK    2  A    between atoms: C_6  and  N_7
REMARK    3  A    between atoms: N_7  and  C_8
REMARK    4  A    between atoms: C_13  and  C_14
REMARK    5  A    between atoms: C_14  and  O_16
REMARK    6  A    between atoms: C_17  and  C_18
REMARK                            x       y       z     vdW  Elec       q    Type
REMARK                         _______ _______ _______ _____ _____    ______ ____
ROOT
ATOM      1  N   UNL     1      38.081   2.368  61.621  0.00  0.00    +0.000 N 
ATOM      2  H   UNL     1      37.351   2.593  62.296  0.00  0.00    +0.000 HD
ENDROOT
BRANCH   1   8
ATOM      3  C   UNL     1      41.755   1.858  64.953  0.00  0.00    +0.000 C 
ATOM      4  C   UNL     1      41.074   1.472  63.667  0.00  0.00    +0.000 A 
ATOM      5  C   UNL     1      41.626   0.478  62.871  0.00  0.00    +0.000 A 
ATOM      6  C   UNL     1      41.026   0.090  61.687  0.00  0.00    +0.000 A 
ATOM      7  C   UNL     1      39.842   0.691  61.296  0.00  0.00    +0.000 A 
ATOM      8  C   UNL     1      39.315   1.705  62.067  0.00  0.00    +0.000 A 
ATOM      9  C   UNL     1      39.908   2.119  63.244  0.00  0.00    +0.000 A 
ATOM     10  C   UNL     1      39.291   3.250  64.038  0.00  0.00    +0.000 C 
ENDBRANCH   1   8
BRANCH   1  11
ATOM     11  C   UNL     1      37.901   2.709  60.203  0.00  0.00    +0.000 A 
ATOM     12  C   UNL     1      38.952   2.529  59.318  0.00  0.00    +0.000 A 
ATOM     13  C   UNL     1      38.758   3.156  58.064  0.00  0.00    +0.000 A 
ATOM     14  C   UNL     1      37.591   3.564  57.603  0.00  0.00    +0.000 A 
ATOM     15  C   UNL     1      36.575   3.655  58.514  0.00  0.00    +0.000 A 
ATOM     16  C   UNL     1      36.730   3.184  59.795  0.00  0.00    +0.000 A 
BRANCH  16  17
ATOM     17  C   UNL     1      35.551   3.207  60.754  0.00  0.00    +0.000 C 
ATOM     18  O   UNL     1      35.289   2.185  61.463  0.00  0.00    +0.000 OA
BRANCH  17  19
ATOM     19  O   UNL     1      34.743   4.369  60.858  0.00  0.00    +0.000 OA
ATOM     20  H   UNL     1      35.170   5.266  60.982  0.00  0.00    +0.000 HD
ENDBRANCH  17  19
ENDBRANCH  16  17
ENDBRANCH   1  11
TORSDOF 4
ENDMDL
MODEL 3
REMARK VINA RESULT:    -7.970      2.051      2.566
REMARK INTER + INTRA:         -10.241
REMARK INTER:                  -9.701
REMARK INTRA:                  -0.540
REMARK UNBOUND:                -0.640
REMARK  Name = 
REMARK  6 active torsions:
REMARK  status: ('A' for Active; 'I' for Inactive)
REMARK    1  A    between atoms: C_1  and  C_2
REMARK    2  A    between atoms: C_6  and  N_7
REMARK    3  A    between atoms: N_7  and  C_8
REMARK    4  A    between atoms: C_13  and  C_14
REMARK    5  A    between atoms: C_14  and  O_16
REMARK    6  A    between atoms: C_17  and  C_18
REMARK                            x       y       z     vdW  Elec       q    Type
REMARK                         _______ _______ _______ _____ _____    ______ ____
ROOT
ATOM      1  N   UNL     1      37.847   1.692  61.042  0.00  0.00    +0.000 N 
ATOM      2  H   UNL     1      37.638   0.729  60.782  0.00  0.00    +0.000 HD
ENDROOT
BRANCH   1   8
ATOM      3  C   UNL     1      41.967   0.642  63.647  0.00  0.00    +0.000 C 
ATOM      4  C   UNL     1      40.722   1.455  63.415  0.00  0.00    +0.000 A 
ATOM      5  C   UNL     1      40.402   2.483  64.290  0.00  0.00    +0.000 A 
ATOM      6  C   UNL     1      39.272   3.259  64.105  0.00  0.00    +0.000 A 
ATOM      7  C   UNL     1      38.452   3.017  63.018  0.00  0.00    +0.000 A 
ATOM      8  C   UNL     1      38.748   1.970  62.171  0.00  0.00    +0.000 A 
ATOM      9  C   UNL     1      39.863   1.173  62.347  0.00  0.00    +0.000 A 
ATOM     10  C   UNL     1      40.125   0.028  61.393  0.00  0.00    +0.000 C 
ENDBRANCH   1   8
BRANCH   1  11
ATOM     11  C   UNL     1      37.247   2.803  60.291  0.00  0.00    +0.000 A 
ATOM     12  C   UNL     1      36.187   3.507  60.840  0.00  0.00    +0.000 A 
ATOM     13  C   UNL     1      35.515   4.344  59.918  0.00  0.00    +0.000 A 
ATOM     14  C   UNL     1      36.012   4.730  58.757  0.00  0.00    +0.000 A 
ATOM     15  C   UNL     1      37.100   4.039  58.301  0.00  0.00    +0.000 A 
ATOM     16  C   UNL     1      37.732   3.112  59.094  0.00  0.00    +0.000 A 
BRANCH  16  17
ATOM     17  C   UNL     1      38.999   2.435  58.597  0.00  0.00    +0.000 C 
ATOM     18  O   UNL     1      38.953   1.663  57.589  0.00  0.00    +0.000 OA
BRANCH  17  19
ATOM     19  O   UNL     1      40.234   2.665  59.260  0.00  0.00    +0.000 OA
ATOM     20  H   UNL     1      40.702   3.542  59.153  0.00  0.00    +0.000 HD
ENDBRANCH  17  19
ENDBRANCH  16  17
ENDBRANCH   1  11
TORSDOF 4
ENDMDL
MODEL 4
REMARK VINA RESULT:    -7.784      2.526      5.854
REMARK INTER + INTRA:         -10.017
REMARK INTER:                 -10.021
REMARK INTRA:                   0.004
REMARK UNBOUND:                -0.640
REMARK  Name = 
REMARK  6 active torsions:
REMARK  status: ('A' for Active; 'I' for Inactive)
REMARK    1  A    between atoms: C_1  and  C_2
REMARK    2  A    between atoms: C_6  and  N_7
REMARK    3  A    between atoms: N_7  and  C_8
REMARK    4  A    between atoms: C_13  and  C_14
REMARK    5  A    between atoms: C_14  and  O_16
REMARK    6  A    between atoms: C_17  and  C_18
REMARK                            x       y       z     vdW  Elec       q    Type
REMARK                         _______ _______ _______ _____ _____    ______ ____
ROOT
ATOM      1  N   UNL     1      39.123   1.581  60.899  0.00  0.00    +0.000 N 
ATOM      2  H   UNL     1      39.571   0.998  60.193  0.00  0.00    +0.000 HD
ENDROOT
BRANCH   1   8
ATOM      3  C   UNL     1      36.568   4.568  57.832  0.00  0.00    +0.000 C 
ATOM      4  C   UNL     1      36.683   3.758  59.096  0.00  0.00    +0.000 A 
ATOM      5  C   UNL     1      35.616   3.717  59.983  0.00  0.00    +0.000 A 
ATOM      6  C   UNL     1      35.680   2.977  61.150  0.00  0.00    +0.000 A 
ATOM      7  C   UNL     1      36.823   2.250  61.432  0.00  0.00    +0.000 A 
ATOM      8  C   UNL     1      37.897   2.322  60.570  0.00  0.00    +0.000 A 
ATOM      9  C   UNL     1      37.860   3.069  59.408  0.00  0.00    +0.000 A 
ATOM     10  C   UNL     1      39.077   3.122  58.511  0.00  0.00    +0.000 C 
ENDBRANCH   1   8
BRANCH   1  11
ATOM     11  C   UNL     1      39.705   1.683  62.245  0.00  0.00    +0.000 A 
ATOM     12  C   UNL     1      39.141   2.547  63.170  0.00  0.00    +0.000 A 
ATOM     13  C   UNL     1      39.948   2.773  64.310  0.00  0.00    +0.000 A 
ATOM     14  C   UNL     1      40.956   2.004  64.679  0.00  0.00    +0.000 A 
ATOM     15  C   UNL     1      41.423   1.124  63.742  0.00  0.00    +0.000 A 
ATOM     16  C   UNL     1      40.764   0.943  62.551  0.00  0.00    +0.000 A 
BRANCH  16  17
ATOM     17  C   UNL     1      41.250  -0.115  61.574  0.00  0.00    +0.000 C 
ATOM     18  O   UNL     1      42.482  -0.424  61.533  0.00  0.00    +0.000 OA
BRANCH  17  19
ATOM     19  O   UNL     1      40.327  -0.760  60.708  0.00  0.00    +0.000 OA
ATOM     20  H   UNL     1      39.935  -0.260  59.935  0.00  0.00    +0.000 HD
ENDBRANCH  17  19
ENDBRANCH  16  17
ENDBRANCH   1  11
TORSDOF 4
ENDMDL
MODEL 5
REMARK VINA RESULT:    -7.366      1.759      5.422
REMARK INTER + INTRA:          -9.514
REMARK INTER:                  -8.874
REMARK INTRA:                  -0.640
REMARK UNBOUND:                -0.640
REMARK  Name = 
REMARK  6 active torsions:
REMARK  status: ('A' for Active; 'I' for Inactive)
REMARK    1  A    between atoms: C_1  and  C_2
REMARK    2  A    between atoms: C_6  and  N_7
REMARK    3  A    between atoms: N_7  and  C_8
REMARK    4  A    between atoms: C_13  and  C_14
REMARK    5  A    between atoms: C_14  and  O_16
REMARK    6  A    between atoms: C_17  and  C_18
REMARK                            x       y       z     vdW  Elec       q    Type
REMARK                         _______ _______ _______ _____ _____    ______ ____
ROOT
ATOM      1  N   UNL     1      38.504   1.502  61.823  0.00  0.00    +0.000 N 
ATOM      2  H   UNL     1      37.700   1.000  62.199  0.00  0.00    +0.000 HD
ENDROOT
BRANCH   1   8
ATOM      3  C   UNL     1      36.006   4.372  58.600  0.00  0.00    +0.000 C 
ATOM      4  C   UNL     1      37.201   3.538  58.975  0.00  0.00    +0.000 A 
ATOM      5  C   UNL     1      38.236   3.374  58.064  0.00  0.00    +0.000 A 
ATOM      6  C   UNL     1      39.355   2.624  58.375  0.00  0.00    +0.000 A 
ATOM      7  C   UNL     1      39.454   2.036  59.624  0.00  0.00    +0.000 A 
ATOM      8  C   UNL     1      38.409   2.166  60.514  0.00  0.00    +0.000 A 
ATOM      9  C   UNL     1      37.275   2.898  60.217  0.00  0.00    +0.000 A 
ATOM     10  C   UNL     1      36.154   2.989  61.229  0.00  0.00    +0.000 C 
ENDBRANCH   1   8
BRANCH   1  11
ATOM     11  C   UNL     1      39.757   1.561  62.588  0.00  0.00    +0.000 A 
ATOM     12  C   UNL     1      40.828   0.768  62.209  0.00  0.00    +0.000 A 
ATOM     13  C   UNL     1      41.857   0.694  63.177  0.00  0.00    +0.000 A 
ATOM     14  C   UNL     1      42.007   1.541  64.177  0.00  0.00    +0.000 A 
ATOM     15  C   UNL     1      40.937   2.345  64.459  0.00  0.00    +0.000 A 
ATOM     16  C   UNL     1      39.840   2.377  63.633  0.00  0.00    +0.000 A 
BRANCH  16  17
ATOM     17  C   UNL     1      38.711   3.355  63.916  0.00  0.00    +0.000 C 
ATOM     18  O   UNL     1      37.858   3.096  64.821  0.00  0.00    +0.000 OA
BRANCH  17  19
ATOM     19  O   UNL     1      38.611   4.559  63.169  0.00  0.00    +0.000 OA
ATOM     20  H   UNL     1      38.605   5.441  63.641  0.00  0.00    +0.000 HD
ENDBRANCH  17  19
ENDBRANCH  16  17
ENDBRANCH   1  11
TORSDOF 4
ENDMDL
