MODEL 1
REMARK VINA RESULT:    -8.279      0.000      0.000
REMARK INTER + INTRA:         -10.565
REMARK INTER:                 -10.231
REMARK INTRA:                  -0.334
REMARK UNBOUND:                -0.592
REMARK  Name = 
REMARK  6 active torsions:
REMARK  status: ('A' for Active; 'I' for Inactive)
REMARK    1  A    between atoms: C_1  and  C_2
REMARK    2  A    between atoms: C_6  and  N_7
REMARK    3  A    between atoms: N_7  and  C_8
REMARK    4  A    between atoms: C_13  and  C_14
REMARK    5  A    between atoms: C_14  and  O_16
REMARK    6  A    between atoms: C_17  and  C_18
REMARK                            x       y       z     vdW  Elec       q    Type
REMARK                         _______ _______ _______ _____ _____    ______ ____
ROOT
ATOM      1  N   UNL     1      40.857  38.951  85.591  0.00  0.00    +0.000 N 
ATOM      2  H   UNL     1      41.041  39.153  84.609  0.00  0.00    +0.000 HD
ENDROOT
BRANCH   1   8
ATOM      3  C   UNL     1      44.467  35.669  86.619  0.00  0.00    +0.000 C 
ATOM      4  C   UNL     1      43.669  36.903  86.948  0.00  0.00    +0.000 A 
ATOM      5  C   UNL     1      43.953  37.613  88.106  0.00  0.00    +0.000 A 
ATOM      6  C   UNL     1      43.249  38.756  88.438  0.00  0.00    +0.000 A 
ATOM      7  C   UNL     1      42.253  39.212  87.592  0.00  0.00    +0.000 A 
ATOM      8  C   UNL     1      41.945  38.484  86.462  0.00  0.00    +0.000 A 
ATOM      9  C   UNL     1      42.625  37.331  86.120  0.00  0.00    +0.000 A 
ATOM     10  C   UNL     1      42.229  36.567  84.876  0.00  0.00    +0.000 C 
ENDBRANCH   1   8
BRANCH   1  11
ATOM     11  C   UNL     1      39.503  39.124  86.135  0.00  0.00    +0.000 A 
ATOM     12  C   UNL     1      39.271  38.886  87.481  0.00  0.00    +0.000 A 
ATOM     13  C   UNL     1      37.900  38.801  87.820  0.00  0.00    +0.000 A 
ATOM     14  C   UNL     1      36.913  39.246  87.066  0.00  0.00    +0.000 A 
ATOM     15  C   UNL     1      37.221  39.528  85.764  0.00  0.00    +0.000 A 
ATOM     16  C   UNL     1      38.523  39.505  85.324  0.00  0.00    +0.000 A 
BRANCH  16  17
ATOM     17  C   UNL     1      38.844  39.921  83.898  0.00  0.00    +0.000 C 
ATOM     18  O   UNL     1      39.811  40.713  83.670  0.00  0.00    +0.000 OA
BRANCH  17  19
ATOM     19  O   UNL     1      38.064  39.424  82.821  0.00  0.00    +0.000 OA
ATOM     20  H   UNL     1      38.212  39.772  81.895  0.00  0.00    +0.000 HD
ENDBRANCH  17  19
ENDBRANCH  16  17
ENDBRANCH   1  11
TORSDOF 4
ENDMDL
MODEL 2
REMARK VINA RESULT:    -8.126      0.699      1.885
REMARK INTER + INTRA:         -10.380
REMARK INTER:                  -9.468
REMARK INTRA:                  -0.913
REMARK UNBOUND:                -0.592
REMARK  Name = 
REMARK  6 active torsions:
REMARK  status: ('A' for Active; 'I' for Inactive)
REMARK    1  A    between atoms: C_1  and  C_2
REMARK    2  A    between atoms: C_6  and  N_7
REMARK    3  A    between atoms: N_7  and  C_8
REMARK    4  A    between atoms: C_13  and  C_14
REMARK    5  A    between atoms: C_14  and  O_16
REMARK    6  A    between atoms: C_17  and  C_18
REMARK                            x       y       z     vdW  Elec       q    Type
REMARK                         _______ _______ _______ _____ _____    ______ ____
ROOT
ATOM      1  N   UNL     1      40.599  39.690  85.853  0.00  0.00    +0.000 N 
ATOM      2  H   UNL     1      40.934  40.598  85.531  0.00  0.00    +0.000 HD
ENDROOT
BRANCH   1   8
ATOM      3  C   UNL     1      44.335  37.122  87.928  0.00  0.00    +0.000 C 
ATOM      4  C   UNL     1      43.298  37.311  86.853  0.00  0.00    +0.000 A 
ATOM      5  C   UNL     1      43.198  36.382  85.827  0.00  0.00    +0.000 A 
ATOM      6  C   UNL     1      42.253  36.515  84.827  0.00  0.00    +0.000 A 
ATOM      7  C   UNL     1      41.378  37.587  84.856  0.00  0.00    +0.000 A 
ATOM      8  C   UNL     1      41.503  38.531  85.853  0.00  0.00    +0.000 A 
ATOM      9  C   UNL     1      42.452  38.425  86.853  0.00  0.00    +0.000 A 
ATOM     10  C   UNL     1      42.551  39.503  87.910  0.00  0.00    +0.000 C 
ENDBRANCH   1   8
BRANCH   1  11
ATOM     11  C   UNL     1      39.212  39.539  86.314  0.00  0.00    +0.000 A 
ATOM     12  C   UNL     1      38.955  39.360  87.664  0.00  0.00    +0.000 A 
ATOM     13  C   UNL     1      37.634  38.940  87.946  0.00  0.00    +0.000 A 
ATOM     14  C   UNL     1      36.620  39.042  87.106  0.00  0.00    +0.000 A 
ATOM     15  C   UNL     1      36.936  39.287  85.798  0.00  0.00    +0.000 A 
ATOM     16  C   UNL     1      38.226  39.577  85.425  0.00  0.00    +0.000 A 
BRANCH  16  17
ATOM     17  C   UNL     1      38.528  39.945  83.981  0.00  0.00    +0.000 C 
ATOM     18  O   UNL     1      39.295  40.924  83.723  0.00  0.00    +0.000 OA
BRANCH  17  19
ATOM     19  O   UNL     1      37.953  39.194  82.922  0.00  0.00    +0.000 OA
ATOM     20  H   UNL     1      38.528  38.868  82.171  0.00  0.00    +0.000 HD
ENDBRANCH  17  19
ENDBRANCH  16  17
ENDBRANCH   1  11
TORSDOF 4
ENDMDL
MODEL 3
REMARK VINA RESULT:    -7.928      2.472      6.069
REMARK INTER + INTRA:         -10.142
REMARK INTER:                  -9.935
REMARK INTRA:                  -0.207
REMARK UNBOUND:                -0.592
REMARK  Name = 
REMARK  6 active torsions:
REMARK  status: ('A' for Active; 'I' for Inactive)
REMARK    1  A    between atoms: C_1  and  C_2
REMARK    2  A    between atoms: C_6  and  N_7
REMARK    3  A    between atoms: N_7  and  C_8
REMARK    4  A    between atoms: C_13  and  C_14
REMARK    5  A    between atoms: C_14  and  O_16
REMARK    6  A    between atoms: C_17  and  C_18
REMARK                            x       y       z     vdW  Elec       q    Type
REMARK                         _______ _______ _______ _____ _____    ______ ____
ROOT
ATOM      1  N   UNL     1      41.118  38.197  87.297  0.00  0.00    +0.000 N 
ATOM      2  H   UNL     1      40.854  38.183  88.282  0.00  0.00    +0.000 HD
ENDROOT
BRANCH   1   8
ATOM      3  C   UNL     1      36.508  39.569  85.984  0.00  0.00    +0.000 C 
ATOM      4  C   UNL     1      37.967  39.371  85.672  0.00  0.00    +0.000 A 
ATOM      5  C   UNL     1      38.445  39.675  84.405  0.00  0.00    +0.000 A 
ATOM      6  C   UNL     1      39.780  39.516  84.083  0.00  0.00    +0.000 A 
ATOM      7  C   UNL     1      40.663  39.060  85.046  0.00  0.00    +0.000 A 
ATOM      8  C   UNL     1      40.182  38.721  86.293  0.00  0.00    +0.000 A 
ATOM      9  C   UNL     1      38.848  38.857  86.630  0.00  0.00    +0.000 A 
ATOM     10  C   UNL     1      38.378  38.451  88.010  0.00  0.00    +0.000 C 
ENDBRANCH   1   8
BRANCH   1  11
ATOM     11  C   UNL     1      42.433  37.690  86.882  0.00  0.00    +0.000 A 
ATOM     12  C   UNL     1      42.544  36.949  85.716  0.00  0.00    +0.000 A 
ATOM     13  C   UNL     1      43.783  36.280  85.577  0.00  0.00    +0.000 A 
ATOM     14  C   UNL     1      44.875  36.576  86.257  0.00  0.00    +0.000 A 
ATOM     15  C   UNL     1      44.708  37.367  87.360  0.00  0.00    +0.000 A 
ATOM     16  C   UNL     1      43.496  37.952  87.635  0.00  0.00    +0.000 A 
BRANCH  16  17
ATOM     17  C   UNL     1      43.369  38.907  88.810  0.00  0.00    +0.000 C 
ATOM     18  O   UNL     1      43.927  38.630  89.917  0.00  0.00    +0.000 OA
BRANCH  17  19
ATOM     19  O   UNL     1      42.626  40.109  88.670  0.00  0.00    +0.000 OA
ATOM     20  H   UNL     1      42.991  40.967  89.033  0.00  0.00    +0.000 HD
ENDBRANCH  17  19
ENDBRANCH  16  17
ENDBRANCH   1  11
TORSDOF 4
ENDMDL
MODEL 4
REMARK VINA RESULT:    -7.643      2.042      5.565
REMARK INTER + INTRA:          -9.799
REMARK INTER:                  -9.264
REMARK INTRA:                  -0.535
REMARK UNBOUND:                -0.592
REMARK  Name = 
REMARK  6 active torsions:
REMARK  status: ('A' for Active; 'I' for Inactive)
REMARK    1  A    between atoms: C_1  and  C_2
REMARK    2  A    between atoms: C_6  and  N_7
REMARK    3  A    between atoms: N_7  and  C_8
REMARK    4  A    between atoms: C_13  and  C_14
REMARK    5  A    between atoms: C_14  and  O_16
REMARK    6  A    between atoms: C_17  and  C_18
REMARK                            x       y       z     vdW  Elec       q    Type
REMARK                         _______ _______ _______ _____ _____    ______ ____
ROOT
ATOM      1  N   UNL     1      40.804  39.393  85.700  0.00  0.00    +0.000 N 
ATOM      2  H   UNL     1      40.989  40.208  85.117  0.00  0.00    +0.000 HD
ENDROOT
BRANCH   1   8
ATOM      3  C   UNL     1      35.825  39.148  85.798  0.00  0.00    +0.000 C 
ATOM      4  C   UNL     1      37.160  39.189  86.492  0.00  0.00    +0.000 A 
ATOM      5  C   UNL     1      37.213  39.153  87.879  0.00  0.00    +0.000 A 
ATOM      6  C   UNL     1      38.420  39.179  88.553  0.00  0.00    +0.000 A 
ATOM      7  C   UNL     1      39.601  39.225  87.832  0.00  0.00    +0.000 A 
ATOM      8  C   UNL     1      39.547  39.300  86.456  0.00  0.00    +0.000 A 
ATOM      9  C   UNL     1      38.350  39.292  85.764  0.00  0.00    +0.000 A 
ATOM     10  C   UNL     1      38.356  39.395  84.255  0.00  0.00    +0.000 C 
ENDBRANCH   1   8
BRANCH   1  11
ATOM     11  C   UNL     1      41.794  38.310  85.786  0.00  0.00    +0.000 A 
ATOM     12  C   UNL     1      41.751  37.270  84.872  0.00  0.00    +0.000 A 
ATOM     13  C   UNL     1      42.554  36.160  85.228  0.00  0.00    +0.000 A 
ATOM     14  C   UNL     1      43.529  36.195  86.117  0.00  0.00    +0.000 A 
ATOM     15  C   UNL     1      43.557  37.283  86.946  0.00  0.00    +0.000 A 
ATOM     16  C   UNL     1      42.715  38.349  86.742  0.00  0.00    +0.000 A 
BRANCH  16  17
ATOM     17  C   UNL     1      42.840  39.585  87.617  0.00  0.00    +0.000 C 
ATOM     18  O   UNL     1      42.887  40.738  87.086  0.00  0.00    +0.000 OA
BRANCH  17  19
ATOM     19  O   UNL     1      42.902  39.452  89.030  0.00  0.00    +0.000 OA
ATOM     20  H   UNL     1      42.102  39.132  89.537  0.00  0.00    +0.000 HD
ENDBRANCH  17  19
ENDBRANCH  16  17
ENDBRANCH   1  11
TORSDOF 4
ENDMDL
MODEL 5
REMARK VINA RESULT:    -7.600      1.780      5.276
REMARK INTER + INTRA:          -9.748
REMARK INTER:                  -9.156
REMARK INTRA:                  -0.592
REMARK UNBOUND:                -0.592
REMARK  Name = 
REMARK  6 active torsions:
REMARK  status: ('A' for Active; 'I' for Inactive)
REMARK    1  A    between atoms: C_1  and  C_2
REMARK    2  A    between atoms: C_6  and  N_7
REMARK    3  A    between atoms: N_7  and  C_8
REMARK    4  A    between atoms: C_13  and  C_14
REMARK    5  A    between atoms: C_14  and  O_16
REMARK    6  A    between atoms: C_17  and  C_18
REMARK                            x       y       z     vdW  Elec       q    Type
REMARK                         _______ _______ _______ _____ _____    ______ ____
ROOT
ATOM      1  N   UNL     1      41.731  38.932  86.291  0.00  0.00    +0.000 N 
ATOM      2  H   UNL     1      42.080  39.651  85.657  0.00  0.00    +0.000 HD
ENDROOT
BRANCH   1   8
ATOM      3  C   UNL     1      36.884  39.322  85.191  0.00  0.00    +0.000 C 
ATOM      4  C   UNL     1      38.004  39.141  86.180  0.00  0.00    +0.000 A 
ATOM      5  C   UNL     1      37.711  39.000  87.529  0.00  0.00    +0.000 A 
ATOM      6  C   UNL     1      38.711  38.821  88.467  0.00  0.00    +0.000 A 
ATOM      7  C   UNL     1      40.031  38.767  88.052  0.00  0.00    +0.000 A 
ATOM      8  C   UNL     1      40.324  38.948  86.717  0.00  0.00    +0.000 A 
ATOM      9  C   UNL     1      39.341  39.143  85.766  0.00  0.00    +0.000 A 
ATOM     10  C   UNL     1      39.728  39.352  84.319  0.00  0.00    +0.000 C 
ENDBRANCH   1   8
BRANCH   1  11
ATOM     11  C   UNL     1      42.636  37.882  86.780  0.00  0.00    +0.000 A 
ATOM     12  C   UNL     1      43.112  37.941  88.080  0.00  0.00    +0.000 A 
ATOM     13  C   UNL     1      44.186  37.056  88.338  0.00  0.00    +0.000 A 
ATOM     14  C   UNL     1      44.498  36.018  87.584  0.00  0.00    +0.000 A 
ATOM     15  C   UNL     1      43.941  35.983  86.336  0.00  0.00    +0.000 A 
ATOM     16  C   UNL     1      42.981  36.893  85.964  0.00  0.00    +0.000 A 
BRANCH  16  17
ATOM     17  C   UNL     1      42.308  36.766  84.607  0.00  0.00    +0.000 C 
ATOM     18  O   UNL     1      42.917  37.142  83.558  0.00  0.00    +0.000 OA
BRANCH  17  19
ATOM     19  O   UNL     1      40.997  36.227  84.513  0.00  0.00    +0.000 OA
ATOM     20  H   UNL     1      40.587  36.065  83.615  0.00  0.00    +0.000 HD
ENDBRANCH  17  19
ENDBRANCH  16  17
ENDBRANCH   1  11
TORSDOF 4
ENDMDL
