MODEL 1
REMARK VINA RESULT:    -8.244      0.000      0.000
REMARK INTER + INTRA:         -10.581
REMARK INTER:                 -10.264
REMARK INTRA:                  -0.317
REMARK UNBOUND:                -0.651
REMARK  Name = 
REMARK  6 active torsions:
REMARK  status: ('A' for Active; 'I' for Inactive)
REMARK    1  A    between atoms: C_1  and  C_2
REMARK    2  A    between atoms: C_6  and  N_7
REMARK    3  A    between atoms: N_7  and  C_8
REMARK    4  A    between atoms: C_13  and  C_14
REMARK    5  A    between atoms: C_14  and  O_16
REMARK    6  A    between atoms: C_17  and  C_18
REMARK                            x       y       z     vdW  Elec       q    Type
REMARK                         _______ _______ _______ _____ _____    ______ ____
ROOT
ATOM      1  N   UNL     1      40.853  38.951  85.620  0.00  0.00    +0.000 N 
ATOM      2  H   UNL     1      41.037  39.151  84.637  0.00  0.00    +0.000 HD
ENDROOT
BRANCH   1   8
ATOM      3  C   UNL     1      44.450  35.652  86.638  0.00  0.00    +0.000 C 
ATOM      4  C   UNL     1      43.657  36.887  86.971  0.00  0.00    +0.000 A 
ATOM      5  C   UNL     1      43.943  37.592  88.132  0.00  0.00    +0.000 A 
ATOM      6  C   UNL     1      43.243  38.737  88.467  0.00  0.00    +0.000 A 
ATOM      7  C   UNL     1      42.249  39.199  87.622  0.00  0.00    +0.000 A 
ATOM      8  C   UNL     1      41.939  38.477  86.490  0.00  0.00    +0.000 A 
ATOM      9  C   UNL     1      42.615  37.322  86.144  0.00  0.00    +0.000 A 
ATOM     10  C   UNL     1      42.217  36.564  84.897  0.00  0.00    +0.000 C 
ENDBRANCH   1   8
BRANCH   1  11
ATOM     11  C   UNL     1      39.501  39.135  86.166  0.00  0.00    +0.000 A 
ATOM     12  C   UNL     1      39.274  38.919  87.516  0.00  0.00    +0.000 A 
ATOM     13  C   UNL     1      37.904  38.841  87.862  0.00  0.00    +0.000 A 
ATOM     14  C   UNL     1      36.915  39.276  87.104  0.00  0.00    +0.000 A 
ATOM     15  C   UNL     1      37.219  39.536  85.796  0.00  0.00    +0.000 A 
ATOM     16  C   UNL     1      38.519  39.504  85.353  0.00  0.00    +0.000 A 
BRANCH  16  17
ATOM     17  C   UNL     1      38.836  39.897  83.919  0.00  0.00    +0.000 C 
ATOM     18  O   UNL     1      39.806  40.680  83.675  0.00  0.00    +0.000 OA
BRANCH  17  19
ATOM     19  O   UNL     1      38.048  39.388  82.853  0.00  0.00    +0.000 OA
ATOM     20  H   UNL     1      38.446  38.742  82.202  0.00  0.00    +0.000 HD
ENDBRANCH  17  19
ENDBRANCH  16  17
ENDBRANCH   1  11
TORSDOF 4
ENDMDL
MODEL 2
REMARK VINA RESULT:    -8.097      0.709      1.892
REMARK INTER + INTRA:         -10.404
REMARK INTER:                  -9.492
REMARK INTRA:                  -0.912
REMARK UNBOUND:                -0.651
REMARK  Name = 
REMARK  6 active torsions:
REMARK  status: ('A' for Active; 'I' for Inactive)
REMARK    1  A    between atoms: C_1  and  C_2
REMARK    2  A    between atoms: C_6  and  N_7
REMARK    3  A    between atoms: N_7  and  C_8
REMARK    4  A    between atoms: C_13  and  C_14
REMARK    5  A    between atoms: C_14  and  O_16
REMARK    6  A    between atoms: C_17  and  C_18
REMARK                            x       y       z     vdW  Elec       q    Type
REMARK                         _______ _______ _______ _____ _____    ______ ____
ROOT
ATOM      1  N   UNL     1      40.561  39.687  85.865  0.00  0.00    +0.000 N 
ATOM      2  H   UNL     1      40.893  40.591  85.531  0.00  0.00    +0.000 HD
ENDROOT
BRANCH   1   8
ATOM      3  C   UNL     1      44.300  37.131  87.951  0.00  0.00    +0.000 C 
ATOM      4  C   UNL     1      43.263  37.314  86.876  0.00  0.00    +0.000 A 
ATOM      5  C   UNL     1      43.162  36.380  85.855  0.00  0.00    +0.000 A 
ATOM      6  C   UNL     1      42.216  36.508  84.854  0.00  0.00    +0.000 A 
ATOM      7  C   UNL     1      41.341  37.579  84.878  0.00  0.00    +0.000 A 
ATOM      8  C   UNL     1      41.467  38.529  85.871  0.00  0.00    +0.000 A 
ATOM      9  C   UNL     1      42.416  38.428  86.870  0.00  0.00    +0.000 A 
ATOM     10  C   UNL     1      42.515  39.511  87.922  0.00  0.00    +0.000 C 
ENDBRANCH   1   8
BRANCH   1  11
ATOM     11  C   UNL     1      39.178  39.540  86.338  0.00  0.00    +0.000 A 
ATOM     12  C   UNL     1      38.932  39.374  87.691  0.00  0.00    +0.000 A 
ATOM     13  C   UNL     1      37.612  38.956  87.987  0.00  0.00    +0.000 A 
ATOM     14  C   UNL     1      36.593  39.051  87.154  0.00  0.00    +0.000 A 
ATOM     15  C   UNL     1      36.898  39.284  85.842  0.00  0.00    +0.000 A 
ATOM     16  C   UNL     1      38.185  39.570  85.456  0.00  0.00    +0.000 A 
BRANCH  16  17
ATOM     17  C   UNL     1      38.476  39.925  84.007  0.00  0.00    +0.000 C 
ATOM     18  O   UNL     1      39.233  40.909  83.733  0.00  0.00    +0.000 OA
BRANCH  17  19
ATOM     19  O   UNL     1      37.902  39.158  82.959  0.00  0.00    +0.000 OA
ATOM     20  H   UNL     1      37.221  38.456  83.169  0.00  0.00    +0.000 HD
ENDBRANCH  17  19
ENDBRANCH  16  17
ENDBRANCH   1  11
TORSDOF 4
ENDMDL
MODEL 3
REMARK VINA RESULT:    -7.873      2.468      6.070
REMARK INTER + INTRA:         -10.135
REMARK INTER:                  -9.942
REMARK INTRA:                  -0.192
REMARK UNBOUND:                -0.651
REMARK  Name = 
REMARK  6 active torsions:
REMARK  status: ('A' for Active; 'I' for Inactive)
REMARK    1  A    between atoms: C_1  and  C_2
REMARK    2  A    between atoms: C_6  and  N_7
REMARK    3  A    between atoms: N_7  and  C_8
REMARK    4  A    between atoms: C_13  and  C_14
REMARK    5  A    between atoms: C_14  and  O_16
REMARK    6  A    between atoms: C_17  and  C_18
REMARK                            x       y       z     vdW  Elec       q    Type
REMARK                         _______ _______ _______ _____ _____    ______ ____
ROOT
ATOM      1  N   UNL     1      41.125  38.210  87.284  0.00  0.00    +0.000 N 
ATOM      2  H   UNL     1      40.862  38.196  88.269  0.00  0.00    +0.000 HD
ENDROOT
BRANCH   1   8
ATOM      3  C   UNL     1      36.513  39.578  85.974  0.00  0.00    +0.000 C 
ATOM      4  C   UNL     1      37.972  39.381  85.661  0.00  0.00    +0.000 A 
ATOM      5  C   UNL     1      38.447  39.684  84.392  0.00  0.00    +0.000 A 
ATOM      6  C   UNL     1      39.783  39.525  84.069  0.00  0.00    +0.000 A 
ATOM      7  C   UNL     1      40.667  39.071  85.032  0.00  0.00    +0.000 A 
ATOM      8  C   UNL     1      40.187  38.733  86.280  0.00  0.00    +0.000 A 
ATOM      9  C   UNL     1      38.854  38.869  86.618  0.00  0.00    +0.000 A 
ATOM     10  C   UNL     1      38.386  38.464  87.999  0.00  0.00    +0.000 C 
ENDBRANCH   1   8
BRANCH   1  11
ATOM     11  C   UNL     1      42.442  37.707  86.868  0.00  0.00    +0.000 A 
ATOM     12  C   UNL     1      42.554  36.970  85.700  0.00  0.00    +0.000 A 
ATOM     13  C   UNL     1      43.794  36.302  85.560  0.00  0.00    +0.000 A 
ATOM     14  C   UNL     1      44.885  36.599  86.241  0.00  0.00    +0.000 A 
ATOM     15  C   UNL     1      44.717  37.387  87.346  0.00  0.00    +0.000 A 
ATOM     16  C   UNL     1      43.503  37.969  87.622  0.00  0.00    +0.000 A 
BRANCH  16  17
ATOM     17  C   UNL     1      43.374  38.921  88.799  0.00  0.00    +0.000 C 
ATOM     18  O   UNL     1      43.933  38.643  89.906  0.00  0.00    +0.000 OA
BRANCH  17  19
ATOM     19  O   UNL     1      42.628  40.122  88.662  0.00  0.00    +0.000 OA
ATOM     20  H   UNL     1      43.097  41.005  88.678  0.00  0.00    +0.000 HD
ENDBRANCH  17  19
ENDBRANCH  16  17
ENDBRANCH   1  11
TORSDOF 4
ENDMDL
MODEL 4
REMARK VINA RESULT:    -7.818      2.102      3.131
REMARK INTER + INTRA:         -10.068
REMARK INTER:                  -9.483
REMARK INTRA:                  -0.585
REMARK UNBOUND:                -0.651
REMARK  Name = 
REMARK  6 active torsions:
REMARK  status: ('A' for Active; 'I' for Inactive)
REMARK    1  A    between atoms: C_1  and  C_2
REMARK    2  A    between atoms: C_6  and  N_7
REMARK    3  A    between atoms: N_7  and  C_8
REMARK    4  A    between atoms: C_13  and  C_14
REMARK    5  A    between atoms: C_14  and  O_16
REMARK    6  A    between atoms: C_17  and  C_18
REMARK                            x       y       z     vdW  Elec       q    Type
REMARK                         _______ _______ _______ _____ _____    ______ ____
ROOT
ATOM      1  N   UNL     1      40.583  39.578  85.865  0.00  0.00    +0.000 N 
ATOM      2  H   UNL     1      40.892  40.546  85.946  0.00  0.00    +0.000 HD
ENDROOT
BRANCH   1   8
ATOM      3  C   UNL     1      44.582  37.396  87.889  0.00  0.00    +0.000 C 
ATOM      4  C   UNL     1      43.489  37.452  86.856  0.00  0.00    +0.000 A 
ATOM      5  C   UNL     1      43.411  36.463  85.886  0.00  0.00    +0.000 A 
ATOM      6  C   UNL     1      42.416  36.475  84.926  0.00  0.00    +0.000 A 
ATOM      7  C   UNL     1      41.468  37.484  84.942  0.00  0.00    +0.000 A 
ATOM      8  C   UNL     1      41.568  38.487  85.882  0.00  0.00    +0.000 A 
ATOM      9  C   UNL     1      42.564  38.503  86.839  0.00  0.00    +0.000 A 
ATOM     10  C   UNL     1      42.632  39.641  87.833  0.00  0.00    +0.000 C 
ENDBRANCH   1   8
BRANCH   1  11
ATOM     11  C   UNL     1      39.151  39.273  85.729  0.00  0.00    +0.000 A 
ATOM     12  C   UNL     1      38.594  39.157  84.466  0.00  0.00    +0.000 A 
ATOM     13  C   UNL     1      37.179  39.155  84.462  0.00  0.00    +0.000 A 
ATOM     14  C   UNL     1      36.427  38.919  85.521  0.00  0.00    +0.000 A 
ATOM     15  C   UNL     1      37.052  38.982  86.736  0.00  0.00    +0.000 A 
ATOM     16  C   UNL     1      38.416  39.114  86.824  0.00  0.00    +0.000 A 
BRANCH  16  17
ATOM     17  C   UNL     1      39.091  39.078  88.185  0.00  0.00    +0.000 C 
ATOM     18  O   UNL     1      39.058  40.101  88.938  0.00  0.00    +0.000 OA
BRANCH  17  19
ATOM     19  O   UNL     1      39.759  37.901  88.615  0.00  0.00    +0.000 OA
ATOM     20  H   UNL     1      40.654  37.666  88.235  0.00  0.00    +0.000 HD
ENDBRANCH  17  19
ENDBRANCH  16  17
ENDBRANCH   1  11
TORSDOF 4
ENDMDL
MODEL 5
REMARK VINA RESULT:    -7.545      2.123      5.606
REMARK INTER + INTRA:          -9.740
REMARK INTER:                  -9.089
REMARK INTRA:                  -0.651
REMARK UNBOUND:                -0.651
REMARK  Name = 
REMARK  6 active torsions:
REMARK  status: ('A' for Active; 'I' for Inactive)
REMARK    1  A    between atoms: C_1  and  C_2
REMARK    2  A    between atoms: C_6  and  N_7
REMARK    3  A    between atoms: N_7  and  C_8
REMARK    4  A    between atoms: C_13  and  C_14
REMARK    5  A    between atoms: C_14  and  O_16
REMARK    6  A    between atoms: C_17  and  C_18
REMARK                            x       y       z     vdW  Elec       q    Type
REMARK                         _______ _______ _______ _____ _____    ______ ____
ROOT
ATOM      1  N   UNL     1      40.913  39.520  85.976  0.00  0.00    +0.000 N 
ATOM      2  H   UNL     1      41.172  40.414  85.560  0.00  0.00    +0.000 HD
ENDROOT
BRANCH   1   8
ATOM      3  C   UNL     1      35.948  39.129  85.748  0.00  0.00    +0.000 C 
ATOM      4  C   UNL     1      37.234  39.190  86.527  0.00  0.00    +0.000 A 
ATOM      5  C   UNL     1      37.200  39.119  87.913  0.00  0.00    +0.000 A 
ATOM      6  C   UNL     1      38.361  39.162  88.664  0.00  0.00    +0.000 A 
ATOM      7  C   UNL     1      39.582  39.261  88.022  0.00  0.00    +0.000 A 
ATOM      8  C   UNL     1      39.614  39.371  86.648  0.00  0.00    +0.000 A 
ATOM      9  C   UNL     1      38.465  39.346  85.880  0.00  0.00    +0.000 A 
ATOM     10  C   UNL     1      38.563  39.489  84.377  0.00  0.00    +0.000 C 
ENDBRANCH   1   8
BRANCH   1  11
ATOM     11  C   UNL     1      41.839  38.381  85.907  0.00  0.00    +0.000 A 
ATOM     12  C   UNL     1      41.717  37.462  84.877  0.00  0.00    +0.000 A 
ATOM     13  C   UNL     1      42.459  36.274  85.078  0.00  0.00    +0.000 A 
ATOM     14  C   UNL     1      43.451  36.147  85.939  0.00  0.00    +0.000 A 
ATOM     15  C   UNL     1      43.560  37.124  86.890  0.00  0.00    +0.000 A 
ATOM     16  C   UNL     1      42.779  38.253  86.836  0.00  0.00    +0.000 A 
BRANCH  16  17
ATOM     17  C   UNL     1      42.993  39.366  87.849  0.00  0.00    +0.000 C 
ATOM     18  O   UNL     1      42.889  40.580  87.490  0.00  0.00    +0.000 OA
BRANCH  17  19
ATOM     19  O   UNL     1      43.310  39.049  89.196  0.00  0.00    +0.000 OA
ATOM     20  H   UNL     1      43.138  39.718  89.921  0.00  0.00    +0.000 HD
ENDBRANCH  17  19
ENDBRANCH  16  17
ENDBRANCH   1  11
TORSDOF 4
ENDMDL
