MODEL 1
REMARK VINA RESULT:     1.314      0.000      0.000
REMARK INTER + INTRA:           7.303
REMARK INTER:                   2.481
REMARK INTRA:                   4.822
REMARK UNBOUND:                 5.528
REMARK  Name = 
REMARK  10 active torsions:
REMARK  status: ('A' for Active; 'I' for Inactive)
REMARK    1  A    between atoms: C_1  and  C_2
REMARK    2  A    between atoms: C_2  and  C_3
REMARK    3  A    between atoms: C_15  and  O_16
REMARK    4  A    between atoms: O_16  and  C_17
REMARK    5  A    between atoms: C_21  and  C_22
REMARK    6  A    between atoms: C_22  and  C_26
REMARK    7  A    between atoms: C_23  and  O_24
REMARK    8  A    between atoms: O_24  and  C_25
REMARK    9  A    between atoms: C_26  and  O_28
REMARK   10  A    between atoms: O_28  and  C_29
REMARK                            x       y       z     vdW  Elec       q    Type
REMARK                         _______ _______ _______ _____ _____    ______ ____
ROOT
ATOM      1  C   UNL     1      41.474  -0.110  64.096  0.00  0.00    +0.000 C 
ATOM      2  C   UNL     1      41.531  -0.285  62.601  0.00  0.00    +0.000 C 
ATOM      3  N   UNL     1      40.426  -0.195  61.846  0.00  0.00    +0.000 NA
ATOM      4  C   UNL     1      40.581  -0.127  60.377  0.00  0.00    +0.000 C 
ATOM      5  C   UNL     1      40.110   1.251  59.899  0.00  0.00    +0.000 C 
ATOM      6  C   UNL     1      38.805   1.591  60.573  0.00  0.00    +0.000 A 
ATOM      7  C   UNL     1      38.334   0.981  61.685  0.00  0.00    +0.000 A 
ATOM      8  N   UNL     1      37.130   1.524  62.039  0.00  0.00    +0.000 N 
ATOM      9  C   UNL     1      36.790   2.510  61.157  0.00  0.00    +0.000 A 
ATOM     10  C   UNL     1      35.682   3.352  61.078  0.00  0.00    +0.000 A 
ATOM     11  C   UNL     1      35.658   4.257  60.033  0.00  0.00    +0.000 A 
ATOM     12  C   UNL     1      36.677   4.337  59.099  0.00  0.00    +0.000 A 
ATOM     13  C   UNL     1      37.779   3.520  59.150  0.00  0.00    +0.000 A 
ATOM     14  C   UNL     1      37.831   2.594  60.197  0.00  0.00    +0.000 A 
ATOM     15  C   UNL     1      39.073  -0.134  62.386  0.00  0.00    +0.000 C 
ATOM     16  C   UNL     1      39.010   0.038  63.889  0.00  0.00    +0.000 C 
ATOM     17  C   UNL     1      40.249   0.752  64.425  0.00  0.00    +0.000 C 
ATOM     18  H   UNL     1      36.569   1.236  62.841  0.00  0.00    +0.000 HD
ENDROOT
BRANCH   1  20
ATOM     19  C   UNL     1      42.845   0.370  66.102  0.00  0.00    +0.000 C 
ATOM     20  C   UNL     1      42.743   0.559  64.598  0.00  0.00    +0.000 C 
ENDBRANCH   1  20
BRANCH  13  21
ATOM     21  O   UNL     1      38.817   3.611  58.187  0.00  0.00    +0.000 OA
ATOM     22  C   UNL     1      38.690   2.944  56.940  0.00  0.00    +0.000 C 
ENDBRANCH  13  21
BRANCH  17  23
ATOM     23  C   UNL     1      40.385   2.114  63.764  0.00  0.00    +0.000 C 
ATOM     24  C   UNL     1      39.337   2.982  63.784  0.00  0.00    +0.000 C 
BRANCH  24  25
ATOM     25  O   UNL     1      38.123   2.614  64.424  0.00  0.00    +0.000 OA
ATOM     26  C   UNL     1      37.294   3.613  65.000  0.00  0.00    +0.000 C 
ENDBRANCH  24  25
BRANCH  23  27
ATOM     27  C   UNL     1      41.684   2.508  63.079  0.00  0.00    +0.000 C 
ATOM     28  O   UNL     1      41.835   2.297  61.835  0.00  0.00    +0.000 OA
BRANCH  27  29
ATOM     29  O   UNL     1      42.728   3.109  63.830  0.00  0.00    +0.000 OA
ATOM     30  C   UNL     1      42.442   3.723  65.078  0.00  0.00    +0.000 C 
ENDBRANCH  27  29
ENDBRANCH  23  27
ENDBRANCH  17  23
TORSDOF 6
ENDMDL
MODEL 2
REMARK VINA RESULT:     2.989      2.034      3.863
REMARK INTER + INTRA:           9.565
REMARK INTER:                   3.790
REMARK INTRA:                   5.775
REMARK UNBOUND:                 5.528
REMARK  Name = 
REMARK  10 active torsions:
REMARK  status: ('A' for Active; 'I' for Inactive)
REMARK    1  A    between atoms: C_1  and  C_2
REMARK    2  A    between atoms: C_2  and  C_3
REMARK    3  A    between atoms: C_15  and  O_16
REMARK    4  A    between atoms: O_16  and  C_17
REMARK    5  A    between atoms: C_21  and  C_22
REMARK    6  A    between atoms: C_22  and  C_26
REMARK    7  A    between atoms: C_23  and  O_24
REMARK    8  A    between atoms: O_24  and  C_25
REMARK    9  A    between atoms: C_26  and  O_28
REMARK   10  A    between atoms: O_28  and  C_29
REMARK                            x       y       z     vdW  Elec       q    Type
REMARK                         _______ _______ _______ _____ _____    ______ ____
ROOT
ATOM      1  C   UNL     1      42.596   0.961  64.582  0.00  0.00    +0.000 C 
ATOM      2  C   UNL     1      41.678   2.127  64.841  0.00  0.00    +0.000 C 
ATOM      3  N   UNL     1      41.125   2.817  63.833  0.00  0.00    +0.000 NA
ATOM      4  C   UNL     1      40.048   3.780  64.148  0.00  0.00    +0.000 C 
ATOM      5  C   UNL     1      38.743   3.276  63.522  0.00  0.00    +0.000 C 
ATOM      6  C   UNL     1      39.013   2.824  62.109  0.00  0.00    +0.000 A 
ATOM      7  C   UNL     1      40.239   2.542  61.614  0.00  0.00    +0.000 A 
ATOM      8  N   UNL     1      40.137   2.160  60.305  0.00  0.00    +0.000 N 
ATOM      9  C   UNL     1      38.827   2.182  59.918  0.00  0.00    +0.000 A 
ATOM     10  C   UNL     1      38.206   1.884  58.707  0.00  0.00    +0.000 A 
ATOM     11  C   UNL     1      36.829   2.014  58.662  0.00  0.00    +0.000 A 
ATOM     12  C   UNL     1      36.088   2.421  59.758  0.00  0.00    +0.000 A 
ATOM     13  C   UNL     1      36.673   2.723  60.963  0.00  0.00    +0.000 A 
ATOM     14  C   UNL     1      38.064   2.600  61.038  0.00  0.00    +0.000 A 
ATOM     15  C   UNL     1      41.502   2.658  62.434  0.00  0.00    +0.000 C 
ATOM     16  C   UNL     1      42.428   1.490  62.167  0.00  0.00    +0.000 C 
ATOM     17  C   UNL     1      42.248   0.383  63.204  0.00  0.00    +0.000 C 
ATOM     18  H   UNL     1      40.921   1.897  59.707  0.00  0.00    +0.000 HD
ENDROOT
BRANCH   1  20
ATOM     19  C   UNL     1      43.635  -0.077  66.577  0.00  0.00    +0.000 C 
ATOM     20  C   UNL     1      42.423  -0.097  65.659  0.00  0.00    +0.000 C 
ENDBRANCH   1  20
BRANCH  13  21
ATOM     21  O   UNL     1      35.902   3.141  62.079  0.00  0.00    +0.000 OA
ATOM     22  C   UNL     1      34.535   3.485  61.910  0.00  0.00    +0.000 C 
ENDBRANCH  13  21
BRANCH  17  23
ATOM     23  C   UNL     1      40.806  -0.100  63.197  0.00  0.00    +0.000 C 
ATOM     24  C   UNL     1      40.211  -0.431  62.020  0.00  0.00    +0.000 C 
BRANCH  24  25
ATOM     25  O   UNL     1      40.937  -0.327  60.803  0.00  0.00    +0.000 OA
ATOM     26  C   UNL     1      41.039  -1.450  59.940  0.00  0.00    +0.000 C 
ENDBRANCH  24  25
BRANCH  23  27
ATOM     27  C   UNL     1      40.029  -0.211  64.499  0.00  0.00    +0.000 C 
ATOM     28  O   UNL     1      39.948  -1.329  65.097  0.00  0.00    +0.000 OA
BRANCH  27  29
ATOM     29  O   UNL     1      39.393   0.935  65.046  0.00  0.00    +0.000 OA
ATOM     30  C   UNL     1      39.347   1.117  66.454  0.00  0.00    +0.000 C 
ENDBRANCH  27  29
ENDBRANCH  23  27
ENDBRANCH  17  23
TORSDOF 6
ENDMDL
MODEL 3
REMARK VINA RESULT:     3.518      2.078      3.699
REMARK INTER + INTRA:          10.279
REMARK INTER:                   0.907
REMARK INTRA:                   9.372
REMARK UNBOUND:                 5.528
REMARK  Name = 
REMARK  10 active torsions:
REMARK  status: ('A' for Active; 'I' for Inactive)
REMARK    1  A    between atoms: C_1  and  C_2
REMARK    2  A    between atoms: C_2  and  C_3
REMARK    3  A    between atoms: C_15  and  O_16
REMARK    4  A    between atoms: O_16  and  C_17
REMARK    5  A    between atoms: C_21  and  C_22
REMARK    6  A    between atoms: C_22  and  C_26
REMARK    7  A    between atoms: C_23  and  O_24
REMARK    8  A    between atoms: O_24  and  C_25
REMARK    9  A    between atoms: C_26  and  O_28
REMARK   10  A    between atoms: O_28  and  C_29
REMARK                            x       y       z     vdW  Elec       q    Type
REMARK                         _______ _______ _______ _____ _____    ______ ____
ROOT
ATOM      1  C   UNL     1      42.384   1.034  64.899  0.00  0.00    +0.000 C 
ATOM      2  C   UNL     1      41.420   2.180  65.062  0.00  0.00    +0.000 C 
ATOM      3  N   UNL     1      40.960   2.861  64.003  0.00  0.00    +0.000 NA
ATOM      4  C   UNL     1      39.836   3.800  64.205  0.00  0.00    +0.000 C 
ATOM      5  C   UNL     1      38.614   3.270  63.447  0.00  0.00    +0.000 C 
ATOM      6  C   UNL     1      39.037   2.828  62.070  0.00  0.00    +0.000 A 
ATOM      7  C   UNL     1      40.314   2.573  61.704  0.00  0.00    +0.000 A 
ATOM      8  N   UNL     1      40.355   2.192  60.391  0.00  0.00    +0.000 N 
ATOM      9  C   UNL     1      39.091   2.188  59.871  0.00  0.00    +0.000 A 
ATOM     10  C   UNL     1      38.605   1.880  58.602  0.00  0.00    +0.000 A 
ATOM     11  C   UNL     1      37.238   1.981  58.415  0.00  0.00    +0.000 A 
ATOM     12  C   UNL     1      36.379   2.370  59.429  0.00  0.00    +0.000 A 
ATOM     13  C   UNL     1      36.830   2.681  60.688  0.00  0.00    +0.000 A 
ATOM     14  C   UNL     1      38.208   2.587  60.906  0.00  0.00    +0.000 A 
ATOM     15  C   UNL     1      41.483   2.713  62.649  0.00  0.00    +0.000 C 
ATOM     16  C   UNL     1      42.455   1.565  62.480  0.00  0.00    +0.000 C 
ATOM     17  C   UNL     1      42.192   0.452  63.492  0.00  0.00    +0.000 C 
ATOM     18  H   UNL     1      41.202   1.947  59.877  0.00  0.00    +0.000 HD
ENDROOT
BRANCH   1  20
ATOM     19  C   UNL     1      43.391  -0.252  66.762  0.00  0.00    +0.000 C 
ATOM     20  C   UNL     1      42.124  -0.030  65.952  0.00  0.00    +0.000 C 
ENDBRANCH   1  20
BRANCH  13  21
ATOM     21  O   UNL     1      35.940   3.079  61.719  0.00  0.00    +0.000 OA
ATOM     22  C   UNL     1      34.614   3.474  61.400  0.00  0.00    +0.000 C 
ENDBRANCH  13  21
BRANCH  17  23
ATOM     23  C   UNL     1      40.770  -0.060  63.336  0.00  0.00    +0.000 C 
ATOM     24  C   UNL     1      39.935  -0.072  64.410  0.00  0.00    +0.000 C 
BRANCH  24  25
ATOM     25  O   UNL     1      40.395   0.394  65.671  0.00  0.00    +0.000 OA
ATOM     26  C   UNL     1      39.473   0.935  66.607  0.00  0.00    +0.000 C 
ENDBRANCH  24  25
BRANCH  23  27
ATOM     27  C   UNL     1      40.278  -0.560  61.987  0.00  0.00    +0.000 C 
ATOM     28  O   UNL     1      39.032  -0.679  61.769  0.00  0.00    +0.000 OA
BRANCH  27  29
ATOM     29  O   UNL     1      41.212  -0.893  60.971  0.00  0.00    +0.000 OA
ATOM     30  C   UNL     1      40.755  -1.408  59.728  0.00  0.00    +0.000 C 
ENDBRANCH  27  29
ENDBRANCH  23  27
ENDBRANCH  17  23
TORSDOF 6
ENDMDL
MODEL 4
REMARK VINA RESULT:     3.970      0.806      2.304
REMARK INTER + INTRA:          10.890
REMARK INTER:                   0.986
REMARK INTRA:                   9.904
REMARK UNBOUND:                 5.528
REMARK  Name = 
REMARK  10 active torsions:
REMARK  status: ('A' for Active; 'I' for Inactive)
REMARK    1  A    between atoms: C_1  and  C_2
REMARK    2  A    between atoms: C_2  and  C_3
REMARK    3  A    between atoms: C_15  and  O_16
REMARK    4  A    between atoms: O_16  and  C_17
REMARK    5  A    between atoms: C_21  and  C_22
REMARK    6  A    between atoms: C_22  and  C_26
REMARK    7  A    between atoms: C_23  and  O_24
REMARK    8  A    between atoms: O_24  and  C_25
REMARK    9  A    between atoms: C_26  and  O_28
REMARK   10  A    between atoms: O_28  and  C_29
REMARK                            x       y       z     vdW  Elec       q    Type
REMARK                         _______ _______ _______ _____ _____    ______ ____
ROOT
ATOM      1  C   UNL     1      41.552   0.008  63.693  0.00  0.00    +0.000 C 
ATOM      2  C   UNL     1      41.551  -0.029  62.188  0.00  0.00    +0.000 C 
ATOM      3  N   UNL     1      40.407   0.015  61.489  0.00  0.00    +0.000 NA
ATOM      4  C   UNL     1      40.482   0.227  60.028  0.00  0.00    +0.000 C 
ATOM      5  C   UNL     1      39.858   1.587  59.698  0.00  0.00    +0.000 C 
ATOM      6  C   UNL     1      38.562   1.734  60.452  0.00  0.00    +0.000 A 
ATOM      7  C   UNL     1      38.207   0.985  61.521  0.00  0.00    +0.000 A 
ATOM      8  N   UNL     1      36.974   1.371  61.972  0.00  0.00    +0.000 N 
ATOM      9  C   UNL     1      36.498   2.392  61.198  0.00  0.00    +0.000 A 
ATOM     10  C   UNL     1      35.312   3.122  61.242  0.00  0.00    +0.000 A 
ATOM     11  C   UNL     1      35.150   4.109  60.286  0.00  0.00    +0.000 A 
ATOM     12  C   UNL     1      36.110   4.372  59.323  0.00  0.00    +0.000 A 
ATOM     13  C   UNL     1      37.286   3.668  59.255  0.00  0.00    +0.000 A 
ATOM     14  C   UNL     1      37.478   2.664  60.209  0.00  0.00    +0.000 A 
ATOM     15  C   UNL     1      39.082  -0.107  62.087  0.00  0.00    +0.000 C 
ATOM     16  C   UNL     1      39.077  -0.074  63.601  0.00  0.00    +0.000 C 
ATOM     17  C   UNL     1      40.266   0.711  64.150  0.00  0.00    +0.000 C 
ATOM     18  H   UNL     1      36.484   0.960  62.766  0.00  0.00    +0.000 HD
ENDROOT
BRANCH   1  20
ATOM     19  C   UNL     1      42.819   0.660  65.720  0.00  0.00    +0.000 C 
ATOM     20  C   UNL     1      42.774   0.754  64.203  0.00  0.00    +0.000 C 
ENDBRANCH   1  20
BRANCH  13  21
ATOM     21  O   UNL     1      38.262   3.946  58.263  0.00  0.00    +0.000 OA
ATOM     22  C   UNL     1      37.952   3.760  56.890  0.00  0.00    +0.000 C 
ENDBRANCH  13  21
BRANCH  17  23
ATOM     23  C   UNL     1      40.238   2.132  63.611  0.00  0.00    +0.000 C 
ATOM     24  C   UNL     1      41.258   2.578  62.829  0.00  0.00    +0.000 C 
BRANCH  24  25
ATOM     25  O   UNL     1      42.343   1.715  62.518  0.00  0.00    +0.000 OA
ATOM     26  C   UNL     1      43.061   1.887  61.304  0.00  0.00    +0.000 C 
ENDBRANCH  24  25
BRANCH  23  27
ATOM     27  C   UNL     1      39.077   3.055  63.944  0.00  0.00    +0.000 C 
ATOM     28  O   UNL     1      38.762   3.993  63.147  0.00  0.00    +0.000 OA
BRANCH  27  29
ATOM     29  O   UNL     1      38.345   2.869  65.146  0.00  0.00    +0.000 OA
ATOM     30  C   UNL     1      37.061   3.458  65.294  0.00  0.00    +0.000 C 
ENDBRANCH  27  29
ENDBRANCH  23  27
ENDBRANCH  17  23
TORSDOF 6
ENDMDL
