MODEL 1
REMARK VINA RESULT:    -8.355      0.000      0.000
REMARK INTER + INTRA:          -6.379
REMARK INTER:                 -10.743
REMARK INTRA:                   4.364
REMARK UNBOUND:                 4.907
REMARK  Name = 
REMARK  10 active torsions:
REMARK  status: ('A' for Active; 'I' for Inactive)
REMARK    1  A    between atoms: C_1  and  C_2
REMARK    2  A    between atoms: C_2  and  C_3
REMARK    3  A    between atoms: C_15  and  O_16
REMARK    4  A    between atoms: O_16  and  C_17
REMARK    5  A    between atoms: C_21  and  C_22
REMARK    6  A    between atoms: C_22  and  C_26
REMARK    7  A    between atoms: C_23  and  O_24
REMARK    8  A    between atoms: O_24  and  C_25
REMARK    9  A    between atoms: C_26  and  O_28
REMARK   10  A    between atoms: O_28  and  C_29
REMARK                            x       y       z     vdW  Elec       q    Type
REMARK                         _______ _______ _______ _____ _____    ______ ____
ROOT
ATOM      1  C   UNL     1      32.225  21.846  70.155  0.00  0.00    +0.000 C 
ATOM      2  C   UNL     1      30.961  22.471  69.626  0.00  0.00    +0.000 C 
ATOM      3  N   UNL     1      30.718  23.782  69.769  0.00  0.00    +0.000 NA
ATOM      4  C   UNL     1      29.591  24.375  69.017  0.00  0.00    +0.000 C 
ATOM      5  C   UNL     1      30.155  25.358  67.986  0.00  0.00    +0.000 C 
ATOM      6  C   UNL     1      31.207  26.216  68.641  0.00  0.00    +0.000 A 
ATOM      7  C   UNL     1      31.823  25.918  69.807  0.00  0.00    +0.000 A 
ATOM      8  N   UNL     1      32.723  26.898  70.123  0.00  0.00    +0.000 N 
ATOM      9  C   UNL     1      32.712  27.863  69.156  0.00  0.00    +0.000 A 
ATOM     10  C   UNL     1      33.431  29.049  69.012  0.00  0.00    +0.000 A 
ATOM     11  C   UNL     1      33.168  29.806  67.885  0.00  0.00    +0.000 A 
ATOM     12  C   UNL     1      32.236  29.422  66.935  0.00  0.00    +0.000 A 
ATOM     13  C   UNL     1      31.512  28.261  67.052  0.00  0.00    +0.000 A 
ATOM     14  C   UNL     1      31.758  27.474  68.182  0.00  0.00    +0.000 A 
ATOM     15  C   UNL     1      31.516  24.672  70.604  0.00  0.00    +0.000 C 
ATOM     16  C   UNL     1      32.786  24.048  71.142  0.00  0.00    +0.000 C 
ATOM     17  C   UNL     1      33.299  22.939  70.225  0.00  0.00    +0.000 C 
ATOM     18  H   UNL     1      33.313  26.908  70.955  0.00  0.00    +0.000 HD
ENDROOT
BRANCH   1  20
ATOM     19  C   UNL     1      31.788  19.505  69.474  0.00  0.00    +0.000 C 
ATOM     20  C   UNL     1      32.677  20.716  69.245  0.00  0.00    +0.000 C 
ENDBRANCH   1  20
BRANCH  13  21
ATOM     21  O   UNL     1      30.559  27.877  66.072  0.00  0.00    +0.000 OA
ATOM     22  C   UNL     1      29.290  28.511  66.030  0.00  0.00    +0.000 C 
ENDBRANCH  13  21
BRANCH  17  23
ATOM     23  C   UNL     1      33.557  23.498  68.835  0.00  0.00    +0.000 C 
ATOM     24  C   UNL     1      34.344  24.597  68.685  0.00  0.00    +0.000 C 
BRANCH  24  25
ATOM     25  O   UNL     1      34.923  25.217  69.824  0.00  0.00    +0.000 OA
ATOM     26  C   UNL     1      36.191  25.848  69.721  0.00  0.00    +0.000 C 
ENDBRANCH  24  25
BRANCH  23  27
ATOM     27  C   UNL     1      32.937  22.834  67.616  0.00  0.00    +0.000 C 
ATOM     28  O   UNL     1      31.920  23.354  67.058  0.00  0.00    +0.000 OA
BRANCH  27  29
ATOM     29  O   UNL     1      33.494  21.635  67.101  0.00  0.00    +0.000 OA
ATOM     30  C   UNL     1      34.764  21.657  66.465  0.00  0.00    +0.000 C 
ENDBRANCH  27  29
ENDBRANCH  23  27
ENDBRANCH  17  23
TORSDOF 6
ENDMDL
MODEL 2
REMARK VINA RESULT:    -8.251      2.048      6.282
REMARK INTER + INTRA:          -6.238
REMARK INTER:                 -10.699
REMARK INTRA:                   4.460
REMARK UNBOUND:                 4.907
REMARK  Name = 
REMARK  10 active torsions:
REMARK  status: ('A' for Active; 'I' for Inactive)
REMARK    1  A    between atoms: C_1  and  C_2
REMARK    2  A    between atoms: C_2  and  C_3
REMARK    3  A    between atoms: C_15  and  O_16
REMARK    4  A    between atoms: O_16  and  C_17
REMARK    5  A    between atoms: C_21  and  C_22
REMARK    6  A    between atoms: C_22  and  C_26
REMARK    7  A    between atoms: C_23  and  O_24
REMARK    8  A    between atoms: O_24  and  C_25
REMARK    9  A    between atoms: C_26  and  O_28
REMARK   10  A    between atoms: O_28  and  C_29
REMARK                            x       y       z     vdW  Elec       q    Type
REMARK                         _______ _______ _______ _____ _____    ______ ____
ROOT
ATOM      1  C   UNL     1      32.263  28.830  67.689  0.00  0.00    +0.000 C 
ATOM      2  C   UNL     1      31.351  28.794  68.887  0.00  0.00    +0.000 C 
ATOM      3  N   UNL     1      30.667  27.686  69.211  0.00  0.00    +0.000 NA
ATOM      4  C   UNL     1      29.991  27.636  70.525  0.00  0.00    +0.000 C 
ATOM      5  C   UNL     1      30.669  26.561  71.382  0.00  0.00    +0.000 C 
ATOM      6  C   UNL     1      30.876  25.321  70.551  0.00  0.00    +0.000 A 
ATOM      7  C   UNL     1      30.837  25.287  69.200  0.00  0.00    +0.000 A 
ATOM      8  N   UNL     1      31.066  24.013  68.758  0.00  0.00    +0.000 N 
ATOM      9  C   UNL     1      31.264  23.183  69.826  0.00  0.00    +0.000 A 
ATOM     10  C   UNL     1      31.528  21.817  69.910  0.00  0.00    +0.000 A 
ATOM     11  C   UNL     1      31.677  21.287  71.179  0.00  0.00    +0.000 A 
ATOM     12  C   UNL     1      31.570  22.061  72.322  0.00  0.00    +0.000 A 
ATOM     13  C   UNL     1      31.308  23.407  72.269  0.00  0.00    +0.000 A 
ATOM     14  C   UNL     1      31.153  23.971  70.999  0.00  0.00    +0.000 A 
ATOM     15  C   UNL     1      30.570  26.510  68.355  0.00  0.00    +0.000 C 
ATOM     16  C   UNL     1      31.482  26.542  67.147  0.00  0.00    +0.000 C 
ATOM     17  C   UNL     1      32.723  27.394  67.403  0.00  0.00    +0.000 C 
ATOM     18  H   UNL     1      31.086  23.725  67.780  0.00  0.00    +0.000 HD
ENDROOT
BRANCH   1  20
ATOM     19  C   UNL     1      33.318  31.008  67.161  0.00  0.00    +0.000 C 
ATOM     20  C   UNL     1      33.460  29.725  67.964  0.00  0.00    +0.000 C 
ENDBRANCH   1  20
BRANCH  13  21
ATOM     21  O   UNL     1      31.200  24.190  73.449  0.00  0.00    +0.000 OA
ATOM     22  C   UNL     1      32.351  24.817  73.993  0.00  0.00    +0.000 C 
ENDBRANCH  13  21
BRANCH  17  23
ATOM     23  C   UNL     1      33.485  26.849  68.600  0.00  0.00    +0.000 C 
ATOM     24  C   UNL     1      33.885  25.549  68.610  0.00  0.00    +0.000 C 
BRANCH  24  25
ATOM     25  O   UNL     1      33.592  24.707  67.504  0.00  0.00    +0.000 OA
ATOM     26  C   UNL     1      34.158  23.407  67.432  0.00  0.00    +0.000 C 
ENDBRANCH  24  25
BRANCH  23  27
ATOM     27  C   UNL     1      33.798  27.750  69.784  0.00  0.00    +0.000 C 
ATOM     28  O   UNL     1      33.157  27.613  70.873  0.00  0.00    +0.000 OA
BRANCH  27  29
ATOM     29  O   UNL     1      34.805  28.743  69.673  0.00  0.00    +0.000 OA
ATOM     30  C   UNL     1      35.909  28.739  70.568  0.00  0.00    +0.000 C 
ENDBRANCH  27  29
ENDBRANCH  23  27
ENDBRANCH  17  23
TORSDOF 6
ENDMDL
MODEL 3
REMARK VINA RESULT:    -7.861      1.893      6.105
REMARK INTER + INTRA:          -5.711
REMARK INTER:                 -10.414
REMARK INTRA:                   4.703
REMARK UNBOUND:                 4.907
REMARK  Name = 
REMARK  10 active torsions:
REMARK  status: ('A' for Active; 'I' for Inactive)
REMARK    1  A    between atoms: C_1  and  C_2
REMARK    2  A    between atoms: C_2  and  C_3
REMARK    3  A    between atoms: C_15  and  O_16
REMARK    4  A    between atoms: O_16  and  C_17
REMARK    5  A    between atoms: C_21  and  C_22
REMARK    6  A    between atoms: C_22  and  C_26
REMARK    7  A    between atoms: C_23  and  O_24
REMARK    8  A    between atoms: O_24  and  C_25
REMARK    9  A    between atoms: C_26  and  O_28
REMARK   10  A    between atoms: O_28  and  C_29
REMARK                            x       y       z     vdW  Elec       q    Type
REMARK                         _______ _______ _______ _____ _____    ______ ____
ROOT
ATOM      1  C   UNL     1      33.282  27.533  69.287  0.00  0.00    +0.000 C 
ATOM      2  C   UNL     1      33.440  26.600  68.116  0.00  0.00    +0.000 C 
ATOM      3  N   UNL     1      33.850  25.334  68.282  0.00  0.00    +0.000 NA
ATOM      4  C   UNL     1      33.746  24.405  67.137  0.00  0.00    +0.000 C 
ATOM      5  C   UNL     1      32.717  23.322  67.478  0.00  0.00    +0.000 C 
ATOM      6  C   UNL     1      32.964  22.826  68.880  0.00  0.00    +0.000 A 
ATOM      7  C   UNL     1      33.698  23.481  69.807  0.00  0.00    +0.000 A 
ATOM      8  N   UNL     1      33.725  22.764  70.972  0.00  0.00    +0.000 N 
ATOM      9  C   UNL     1      32.998  21.617  70.825  0.00  0.00    +0.000 A 
ATOM     10  C   UNL     1      32.721  20.568  71.701  0.00  0.00    +0.000 A 
ATOM     11  C   UNL     1      31.933  19.540  71.215  0.00  0.00    +0.000 A 
ATOM     12  C   UNL     1      31.435  19.536  69.923  0.00  0.00    +0.000 A 
ATOM     13  C   UNL     1      31.693  20.554  69.038  0.00  0.00    +0.000 A 
ATOM     14  C   UNL     1      32.488  21.607  69.502  0.00  0.00    +0.000 A 
ATOM     15  C   UNL     1      34.372  24.805  69.537  0.00  0.00    +0.000 C 
ATOM     16  C   UNL     1      34.219  25.740  70.718  0.00  0.00    +0.000 C 
ATOM     17  C   UNL     1      33.030  26.681  70.539  0.00  0.00    +0.000 C 
ATOM     18  H   UNL     1      34.214  23.044  71.823  0.00  0.00    +0.000 HD
ENDROOT
BRANCH   1  20
ATOM     19  C   UNL     1      32.460  29.409  67.894  0.00  0.00    +0.000 C 
ATOM     20  C   UNL     1      32.120  28.485  69.052  0.00  0.00    +0.000 C 
ENDBRANCH   1  20
BRANCH  13  21
ATOM     21  O   UNL     1      31.179  20.538  67.715  0.00  0.00    +0.000 OA
ATOM     22  C   UNL     1      29.790  20.729  67.491  0.00  0.00    +0.000 C 
ENDBRANCH  13  21
BRANCH  17  23
ATOM     23  C   UNL     1      31.754  25.873  70.363  0.00  0.00    +0.000 C 
ATOM     24  C   UNL     1      31.426  24.923  71.280  0.00  0.00    +0.000 C 
BRANCH  24  25
ATOM     25  O   UNL     1      32.272  24.692  72.397  0.00  0.00    +0.000 OA
ATOM     26  C   UNL     1      31.806  24.967  73.710  0.00  0.00    +0.000 C 
ENDBRANCH  24  25
BRANCH  23  27
ATOM     27  C   UNL     1      30.849  26.120  69.167  0.00  0.00    +0.000 C 
ATOM     28  O   UNL     1      30.282  27.248  69.022  0.00  0.00    +0.000 OA
BRANCH  27  29
ATOM     29  O   UNL     1      30.636  25.091  68.213  0.00  0.00    +0.000 OA
ATOM     30  C   UNL     1      29.490  24.257  68.312  0.00  0.00    +0.000 C 
ENDBRANCH  27  29
ENDBRANCH  23  27
ENDBRANCH  17  23
TORSDOF 6
ENDMDL
MODEL 4
REMARK VINA RESULT:    -7.849      2.035      5.893
REMARK INTER + INTRA:          -5.696
REMARK INTER:                 -10.442
REMARK INTRA:                   4.746
REMARK UNBOUND:                 4.907
REMARK  Name = 
REMARK  10 active torsions:
REMARK  status: ('A' for Active; 'I' for Inactive)
REMARK    1  A    between atoms: C_1  and  C_2
REMARK    2  A    between atoms: C_2  and  C_3
REMARK    3  A    between atoms: C_15  and  O_16
REMARK    4  A    between atoms: O_16  and  C_17
REMARK    5  A    between atoms: C_21  and  C_22
REMARK    6  A    between atoms: C_22  and  C_26
REMARK    7  A    between atoms: C_23  and  O_24
REMARK    8  A    between atoms: O_24  and  C_25
REMARK    9  A    between atoms: C_26  and  O_28
REMARK   10  A    between atoms: O_28  and  C_29
REMARK                            x       y       z     vdW  Elec       q    Type
REMARK                         _______ _______ _______ _____ _____    ______ ____
ROOT
ATOM      1  C   UNL     1      33.181  27.547  70.844  0.00  0.00    +0.000 C 
ATOM      2  C   UNL     1      32.844  26.360  71.707  0.00  0.00    +0.000 C 
ATOM      3  N   UNL     1      31.862  25.510  71.371  0.00  0.00    +0.000 NA
ATOM      4  C   UNL     1      31.747  24.239  72.117  0.00  0.00    +0.000 C 
ATOM      5  C   UNL     1      32.053  23.081  71.162  0.00  0.00    +0.000 C 
ATOM      6  C   UNL     1      31.323  23.304  69.862  0.00  0.00    +0.000 A 
ATOM      7  C   UNL     1      30.813  24.491  69.462  0.00  0.00    +0.000 A 
ATOM      8  N   UNL     1      30.218  24.354  68.238  0.00  0.00    +0.000 N 
ATOM      9  C   UNL     1      30.332  23.061  67.811  0.00  0.00    +0.000 A 
ATOM     10  C   UNL     1      29.900  22.419  66.652  0.00  0.00    +0.000 A 
ATOM     11  C   UNL     1      30.193  21.071  66.538  0.00  0.00    +0.000 A 
ATOM     12  C   UNL     1      30.880  20.377  67.520  0.00  0.00    +0.000 A 
ATOM     13  C   UNL     1      31.315  20.983  68.672  0.00  0.00    +0.000 A 
ATOM     14  C   UNL     1      31.034  22.346  68.815  0.00  0.00    +0.000 A 
ATOM     15  C   UNL     1      30.912  25.749  70.291  0.00  0.00    +0.000 C 
ATOM     16  C   UNL     1      31.244  26.944  69.423  0.00  0.00    +0.000 C 
ATOM     17  C   UNL     1      32.745  27.228  69.409  0.00  0.00    +0.000 C 
ATOM     18  H   UNL     1      29.757  25.103  67.722  0.00  0.00    +0.000 HD
ENDROOT
BRANCH   1  20
ATOM     19  C   UNL     1      34.903  29.199  71.510  0.00  0.00    +0.000 C 
ATOM     20  C   UNL     1      34.674  27.829  70.894  0.00  0.00    +0.000 C 
ENDBRANCH   1  20
BRANCH  13  21
ATOM     21  O   UNL     1      32.018  20.261  69.672  0.00  0.00    +0.000 OA
ATOM     22  C   UNL     1      31.714  18.894  69.907  0.00  0.00    +0.000 C 
ENDBRANCH  13  21
BRANCH  17  23
ATOM     23  C   UNL     1      33.495  26.007  68.902  0.00  0.00    +0.000 C 
ATOM     24  C   UNL     1      33.200  25.494  67.677  0.00  0.00    +0.000 C 
BRANCH  24  25
ATOM     25  O   UNL     1      32.195  26.100  66.877  0.00  0.00    +0.000 OA
ATOM     26  C   UNL     1      32.531  27.170  66.005  0.00  0.00    +0.000 C 
ENDBRANCH  24  25
BRANCH  23  27
ATOM     27  C   UNL     1      34.571  25.359  69.758  0.00  0.00    +0.000 C 
ATOM     28  O   UNL     1      34.377  24.206  70.257  0.00  0.00    +0.000 OA
BRANCH  27  29
ATOM     29  O   UNL     1      35.792  26.041  70.001  0.00  0.00    +0.000 OA
ATOM     30  C   UNL     1      36.994  25.581  69.400  0.00  0.00    +0.000 C 
ENDBRANCH  27  29
ENDBRANCH  23  27
ENDBRANCH  17  23
TORSDOF 6
ENDMDL
MODEL 5
REMARK VINA RESULT:    -7.687      2.085      4.239
REMARK INTER + INTRA:          -5.476
REMARK INTER:                 -10.383
REMARK INTRA:                   4.907
REMARK UNBOUND:                 4.907
REMARK  Name = 
REMARK  10 active torsions:
REMARK  status: ('A' for Active; 'I' for Inactive)
REMARK    1  A    between atoms: C_1  and  C_2
REMARK    2  A    between atoms: C_2  and  C_3
REMARK    3  A    between atoms: C_15  and  O_16
REMARK    4  A    between atoms: O_16  and  C_17
REMARK    5  A    between atoms: C_21  and  C_22
REMARK    6  A    between atoms: C_22  and  C_26
REMARK    7  A    between atoms: C_23  and  O_24
REMARK    8  A    between atoms: O_24  and  C_25
REMARK    9  A    between atoms: C_26  and  O_28
REMARK   10  A    between atoms: O_28  and  C_29
REMARK                            x       y       z     vdW  Elec       q    Type
REMARK                         _______ _______ _______ _____ _____    ______ ____
ROOT
ATOM      1  C   UNL     1      32.680  22.079  70.406  0.00  0.00    +0.000 C 
ATOM      2  C   UNL     1      33.916  22.938  70.468  0.00  0.00    +0.000 C 
ATOM      3  N   UNL     1      34.192  23.834  69.508  0.00  0.00    +0.000 NA
ATOM      4  C   UNL     1      35.274  24.812  69.749  0.00  0.00    +0.000 C 
ATOM      5  C   UNL     1      34.658  26.213  69.831  0.00  0.00    +0.000 C 
ATOM      6  C   UNL     1      33.670  26.386  68.706  0.00  0.00    +0.000 A 
ATOM      7  C   UNL     1      33.132  25.371  67.993  0.00  0.00    +0.000 A 
ATOM      8  N   UNL     1      32.274  25.867  67.050  0.00  0.00    +0.000 N 
ATOM      9  C   UNL     1      32.235  27.230  67.132  0.00  0.00    +0.000 A 
ATOM     10  C   UNL     1      31.529  28.189  66.408  0.00  0.00    +0.000 A 
ATOM     11  C   UNL     1      31.727  29.511  66.764  0.00  0.00    +0.000 A 
ATOM     12  C   UNL     1      32.583  29.882  67.787  0.00  0.00    +0.000 A 
ATOM     13  C   UNL     1      33.292  28.960  68.516  0.00  0.00    +0.000 A 
ATOM     14  C   UNL     1      33.111  27.615  68.179  0.00  0.00    +0.000 A 
ATOM     15  C   UNL     1      33.471  23.921  68.244  0.00  0.00    +0.000 C 
ATOM     16  C   UNL     1      32.230  23.056  68.174  0.00  0.00    +0.000 C 
ATOM     17  C   UNL     1      31.634  22.816  69.560  0.00  0.00    +0.000 C 
ATOM     18  H   UNL     1      31.744  25.304  66.384  0.00  0.00    +0.000 HD
ENDROOT
BRANCH   1  20
ATOM     19  C   UNL     1      32.417  20.375  72.185  0.00  0.00    +0.000 C 
ATOM     20  C   UNL     1      32.145  21.822  71.805  0.00  0.00    +0.000 C 
ENDBRANCH   1  20
BRANCH  13  21
ATOM     21  O   UNL     1      34.167  29.352  69.563  0.00  0.00    +0.000 OA
ATOM     22  C   UNL     1      35.158  30.341  69.327  0.00  0.00    +0.000 C 
ENDBRANCH  13  21
BRANCH  17  23
ATOM     23  C   UNL     1      31.290  24.146  70.210  0.00  0.00    +0.000 C 
ATOM     24  C   UNL     1      30.426  24.996  69.592  0.00  0.00    +0.000 C 
BRANCH  24  25
ATOM     25  O   UNL     1      29.848  24.639  68.345  0.00  0.00    +0.000 OA
ATOM     26  C   UNL     1      28.663  23.857  68.310  0.00  0.00    +0.000 C 
ENDBRANCH  24  25
BRANCH  23  27
ATOM     27  C   UNL     1      31.908  24.529  71.545  0.00  0.00    +0.000 C 
ATOM     28  O   UNL     1      32.903  25.318  71.581  0.00  0.00    +0.000 OA
BRANCH  27  29
ATOM     29  O   UNL     1      31.374  24.005  72.751  0.00  0.00    +0.000 OA
ATOM     30  C   UNL     1      31.757  24.564  74.000  0.00  0.00    +0.000 C 
ENDBRANCH  27  29
ENDBRANCH  23  27
ENDBRANCH  17  23
TORSDOF 6
ENDMDL
