MODEL 1
REMARK VINA RESULT:    -7.408      0.000      0.000
REMARK INTER + INTRA:          -9.886
REMARK INTER:                  -9.110
REMARK INTRA:                  -0.776
REMARK UNBOUND:                -0.962
REMARK  Name = 
REMARK  6 active torsions:
REMARK  status: ('A' for Active; 'I' for Inactive)
REMARK    1  A    between atoms: C_1  and  C_2
REMARK    2  A    between atoms: C_6  and  N_7
REMARK    3  A    between atoms: N_7  and  C_8
REMARK    4  A    between atoms: C_13  and  C_14
REMARK    5  A    between atoms: C_14  and  O_16
REMARK    6  A    between atoms: C_17  and  C_18
REMARK                            x       y       z     vdW  Elec       q    Type
REMARK                         _______ _______ _______ _____ _____    ______ ____
ROOT
ATOM      1  N   UNL     1      34.379  24.265  68.793  0.00  0.00    +0.000 N 
ATOM      2  H   UNL     1      35.080  23.948  68.123  0.00  0.00    +0.000 HD
ENDROOT
BRANCH   1   8
ATOM      3  C   UNL     1      32.266  28.749  68.257  0.00  0.00    +0.000 C 
ATOM      4  C   UNL     1      33.282  27.833  68.886  0.00  0.00    +0.000 A 
ATOM      5  C   UNL     1      34.176  28.340  69.818  0.00  0.00    +0.000 A 
ATOM      6  C   UNL     1      35.118  27.529  70.425  0.00  0.00    +0.000 A 
ATOM      7  C   UNL     1      35.161  26.183  70.110  0.00  0.00    +0.000 A 
ATOM      8  C   UNL     1      34.298  25.688  69.154  0.00  0.00    +0.000 A 
ATOM      9  C   UNL     1      33.361  26.484  68.525  0.00  0.00    +0.000 A 
ATOM     10  C   UNL     1      32.454  25.886  67.472  0.00  0.00    +0.000 C 
ENDBRANCH   1   8
BRANCH   1  11
ATOM     11  C   UNL     1      33.452  23.299  69.399  0.00  0.00    +0.000 A 
ATOM     12  C   UNL     1      32.868  23.586  70.622  0.00  0.00    +0.000 A 
ATOM     13  C   UNL     1      32.237  22.476  71.231  0.00  0.00    +0.000 A 
ATOM     14  C   UNL     1      31.895  21.369  70.598  0.00  0.00    +0.000 A 
ATOM     15  C   UNL     1      32.453  21.176  69.365  0.00  0.00    +0.000 A 
ATOM     16  C   UNL     1      33.191  22.164  68.760  0.00  0.00    +0.000 A 
BRANCH  16  17
ATOM     17  C   UNL     1      33.712  21.958  67.347  0.00  0.00    +0.000 C 
ATOM     18  O   UNL     1      33.186  22.589  66.378  0.00  0.00    +0.000 OA
BRANCH  17  19
ATOM     19  O   UNL     1      34.787  21.061  67.111  0.00  0.00    +0.000 OA
ATOM     20  H   UNL     1      35.693  21.257  67.490  0.00  0.00    +0.000 HD
ENDBRANCH  17  19
ENDBRANCH  16  17
ENDBRANCH   1  11
TORSDOF 4
ENDMDL
MODEL 2
REMARK VINA RESULT:    -7.233      3.216      6.196
REMARK INTER + INTRA:          -9.676
REMARK INTER:                  -8.943
REMARK INTRA:                  -0.733
REMARK UNBOUND:                -0.962
REMARK  Name = 
REMARK  6 active torsions:
REMARK  status: ('A' for Active; 'I' for Inactive)
REMARK    1  A    between atoms: C_1  and  C_2
REMARK    2  A    between atoms: C_6  and  N_7
REMARK    3  A    between atoms: N_7  and  C_8
REMARK    4  A    between atoms: C_13  and  C_14
REMARK    5  A    between atoms: C_14  and  O_16
REMARK    6  A    between atoms: C_17  and  C_18
REMARK                            x       y       z     vdW  Elec       q    Type
REMARK                         _______ _______ _______ _____ _____    ______ ____
ROOT
ATOM      1  N   UNL     1      32.172  22.584  71.335  0.00  0.00    +0.000 N 
ATOM      2  H   UNL     1      32.140  22.569  72.354  0.00  0.00    +0.000 HD
ENDROOT
BRANCH   1   8
ATOM      3  C   UNL     1      28.380  20.950  68.541  0.00  0.00    +0.000 C 
ATOM      4  C   UNL     1      29.701  20.737  69.231  0.00  0.00    +0.000 A 
ATOM      5  C   UNL     1      30.322  19.499  69.153  0.00  0.00    +0.000 A 
ATOM      6  C   UNL     1      31.541  19.267  69.765  0.00  0.00    +0.000 A 
ATOM      7  C   UNL     1      32.162  20.294  70.454  0.00  0.00    +0.000 A 
ATOM      8  C   UNL     1      31.526  21.512  70.564  0.00  0.00    +0.000 A 
ATOM      9  C   UNL     1      30.301  21.759  69.975  0.00  0.00    +0.000 A 
ATOM     10  C   UNL     1      29.645  23.112  70.146  0.00  0.00    +0.000 C 
ENDBRANCH   1   8
BRANCH   1  11
ATOM     11  C   UNL     1      32.866  23.675  70.638  0.00  0.00    +0.000 A 
ATOM     12  C   UNL     1      33.419  23.446  69.388  0.00  0.00    +0.000 A 
ATOM     13  C   UNL     1      34.298  24.466  68.954  0.00  0.00    +0.000 A 
ATOM     14  C   UNL     1      34.344  25.683  69.464  0.00  0.00    +0.000 A 
ATOM     15  C   UNL     1      33.720  25.861  70.668  0.00  0.00    +0.000 A 
ATOM     16  C   UNL     1      32.951  24.866  71.220  0.00  0.00    +0.000 A 
BRANCH  16  17
ATOM     17  C   UNL     1      32.188  25.130  72.508  0.00  0.00    +0.000 C 
ATOM     18  O   UNL     1      30.926  25.273  72.481  0.00  0.00    +0.000 OA
BRANCH  17  19
ATOM     19  O   UNL     1      32.886  25.215  73.742  0.00  0.00    +0.000 OA
ATOM     20  H   UNL     1      32.884  26.072  74.259  0.00  0.00    +0.000 HD
ENDBRANCH  17  19
ENDBRANCH  16  17
ENDBRANCH   1  11
TORSDOF 4
ENDMDL
MODEL 3
REMARK VINA RESULT:    -7.193     13.103     14.422
REMARK INTER + INTRA:          -9.627
REMARK INTER:                  -8.878
REMARK INTRA:                  -0.748
REMARK UNBOUND:                -0.962
REMARK  Name = 
REMARK  6 active torsions:
REMARK  status: ('A' for Active; 'I' for Inactive)
REMARK    1  A    between atoms: C_1  and  C_2
REMARK    2  A    between atoms: C_6  and  N_7
REMARK    3  A    between atoms: N_7  and  C_8
REMARK    4  A    between atoms: C_13  and  C_14
REMARK    5  A    between atoms: C_14  and  O_16
REMARK    6  A    between atoms: C_17  and  C_18
REMARK                            x       y       z     vdW  Elec       q    Type
REMARK                         _______ _______ _______ _____ _____    ______ ____
ROOT
ATOM      1  N   UNL     1      45.387  18.918  69.607  0.00  0.00    +0.000 N 
ATOM      2  H   UNL     1      45.300  19.450  70.472  0.00  0.00    +0.000 HD
ENDROOT
BRANCH   1   8
ATOM      3  C   UNL     1      49.814  19.281  67.342  0.00  0.00    +0.000 C 
ATOM      4  C   UNL     1      48.347  19.603  67.434  0.00  0.00    +0.000 A 
ATOM      5  C   UNL     1      47.761  20.413  66.472  0.00  0.00    +0.000 A 
ATOM      6  C   UNL     1      46.414  20.723  66.516  0.00  0.00    +0.000 A 
ATOM      7  C   UNL     1      45.629  20.203  67.531  0.00  0.00    +0.000 A 
ATOM      8  C   UNL     1      46.219  19.430  68.508  0.00  0.00    +0.000 A 
ATOM      9  C   UNL     1      47.566  19.122  68.491  0.00  0.00    +0.000 A 
ATOM     10  C   UNL     1      48.158  18.284  69.603  0.00  0.00    +0.000 C 
ENDBRANCH   1   8
BRANCH   1  11
ATOM     11  C   UNL     1      44.679  17.639  69.457  0.00  0.00    +0.000 A 
ATOM     12  C   UNL     1      44.082  17.325  68.247  0.00  0.00    +0.000 A 
ATOM     13  C   UNL     1      43.197  16.223  68.312  0.00  0.00    +0.000 A 
ATOM     14  C   UNL     1      43.179  15.334  69.288  0.00  0.00    +0.000 A 
ATOM     15  C   UNL     1      43.845  15.674  70.433  0.00  0.00    +0.000 A 
ATOM     16  C   UNL     1      44.625  16.804  70.488  0.00  0.00    +0.000 A 
BRANCH  16  17
ATOM     17  C   UNL     1      45.433  17.101  71.741  0.00  0.00    +0.000 C 
ATOM     18  O   UNL     1      45.033  17.985  72.560  0.00  0.00    +0.000 OA
BRANCH  17  19
ATOM     19  O   UNL     1      46.635  16.389  71.995  0.00  0.00    +0.000 OA
ATOM     20  H   UNL     1      46.649  15.660  72.680  0.00  0.00    +0.000 HD
ENDBRANCH  17  19
ENDBRANCH  16  17
ENDBRANCH   1  11
TORSDOF 4
ENDMDL
MODEL 4
REMARK VINA RESULT:    -7.182      1.085      1.965
REMARK INTER + INTRA:          -9.614
REMARK INTER:                  -8.800
REMARK INTRA:                  -0.814
REMARK UNBOUND:                -0.962
REMARK  Name = 
REMARK  6 active torsions:
REMARK  status: ('A' for Active; 'I' for Inactive)
REMARK    1  A    between atoms: C_1  and  C_2
REMARK    2  A    between atoms: C_6  and  N_7
REMARK    3  A    between atoms: N_7  and  C_8
REMARK    4  A    between atoms: C_13  and  C_14
REMARK    5  A    between atoms: C_14  and  O_16
REMARK    6  A    between atoms: C_17  and  C_18
REMARK                            x       y       z     vdW  Elec       q    Type
REMARK                         _______ _______ _______ _____ _____    ______ ____
ROOT
ATOM      1  N   UNL     1      34.153  23.752  69.082  0.00  0.00    +0.000 N 
ATOM      2  H   UNL     1      35.095  23.639  68.708  0.00  0.00    +0.000 HD
ENDROOT
BRANCH   1   8
ATOM      3  C   UNL     1      34.853  28.563  70.187  0.00  0.00    +0.000 C 
ATOM      4  C   UNL     1      33.957  27.401  69.849  0.00  0.00    +0.000 A 
ATOM      5  C   UNL     1      32.585  27.595  69.767  0.00  0.00    +0.000 A 
ATOM      6  C   UNL     1      31.731  26.555  69.450  0.00  0.00    +0.000 A 
ATOM      7  C   UNL     1      32.253  25.300  69.193  0.00  0.00    +0.000 A 
ATOM      8  C   UNL     1      33.611  25.098  69.313  0.00  0.00    +0.000 A 
ATOM      9  C   UNL     1      34.481  26.120  69.645  0.00  0.00    +0.000 A 
ATOM     10  C   UNL     1      35.960  25.832  69.779  0.00  0.00    +0.000 C 
ENDBRANCH   1   8
BRANCH   1  11
ATOM     11  C   UNL     1      33.339  22.569  69.391  0.00  0.00    +0.000 A 
ATOM     12  C   UNL     1      32.959  22.322  70.700  0.00  0.00    +0.000 A 
ATOM     13  C   UNL     1      32.438  21.024  70.912  0.00  0.00    +0.000 A 
ATOM     14  C   UNL     1      32.001  20.227  69.955  0.00  0.00    +0.000 A 
ATOM     15  C   UNL     1      32.352  20.563  68.676  0.00  0.00    +0.000 A 
ATOM     16  C   UNL     1      32.980  21.754  68.405  0.00  0.00    +0.000 A 
BRANCH  16  17
ATOM     17  C   UNL     1      33.266  22.144  66.964  0.00  0.00    +0.000 C 
ATOM     18  O   UNL     1      32.570  23.044  66.399  0.00  0.00    +0.000 OA
BRANCH  17  19
ATOM     19  O   UNL     1      34.312  21.502  66.249  0.00  0.00    +0.000 OA
ATOM     20  H   UNL     1      34.182  20.573  65.899  0.00  0.00    +0.000 HD
ENDBRANCH  17  19
ENDBRANCH  16  17
ENDBRANCH   1  11
TORSDOF 4
ENDMDL
MODEL 5
REMARK VINA RESULT:    -7.061     13.352     14.716
REMARK INTER + INTRA:          -9.469
REMARK INTER:                  -8.506
REMARK INTRA:                  -0.962
REMARK UNBOUND:                -0.962
REMARK  Name = 
REMARK  6 active torsions:
REMARK  status: ('A' for Active; 'I' for Inactive)
REMARK    1  A    between atoms: C_1  and  C_2
REMARK    2  A    between atoms: C_6  and  N_7
REMARK    3  A    between atoms: N_7  and  C_8
REMARK    4  A    between atoms: C_13  and  C_14
REMARK    5  A    between atoms: C_14  and  O_16
REMARK    6  A    between atoms: C_17  and  C_18
REMARK                            x       y       z     vdW  Elec       q    Type
REMARK                         _______ _______ _______ _____ _____    ______ ____
ROOT
ATOM      1  N   UNL     1      45.320  18.660  69.192  0.00  0.00    +0.000 N 
ATOM      2  H   UNL     1      44.352  18.589  68.878  0.00  0.00    +0.000 HD
ENDROOT
BRANCH   1   8
ATOM      3  C   UNL     1      48.169  20.427  65.502  0.00  0.00    +0.000 C 
ATOM      4  C   UNL     1      47.775  19.335  66.460  0.00  0.00    +0.000 A 
ATOM      5  C   UNL     1      48.451  18.123  66.434  0.00  0.00    +0.000 A 
ATOM      6  C   UNL     1      48.125  17.100  67.306  0.00  0.00    +0.000 A 
ATOM      7  C   UNL     1      47.116  17.292  68.233  0.00  0.00    +0.000 A 
ATOM      8  C   UNL     1      46.419  18.481  68.233  0.00  0.00    +0.000 A 
ATOM      9  C   UNL     1      46.718  19.510  67.360  0.00  0.00    +0.000 A 
ATOM     10  C   UNL     1      45.905  20.785  67.397  0.00  0.00    +0.000 C 
ENDBRANCH   1   8
BRANCH   1  11
ATOM     11  C   UNL     1      45.615  18.941  70.604  0.00  0.00    +0.000 A 
ATOM     12  C   UNL     1      46.014  20.213  70.980  0.00  0.00    +0.000 A 
ATOM     13  C   UNL     1      46.544  20.285  72.290  0.00  0.00    +0.000 A 
ATOM     14  C   UNL     1      46.370  19.365  73.220  0.00  0.00    +0.000 A 
ATOM     15  C   UNL     1      45.909  18.150  72.794  0.00  0.00    +0.000 A 
ATOM     16  C   UNL     1      45.495  17.965  71.497  0.00  0.00    +0.000 A 
BRANCH  16  17
ATOM     17  C   UNL     1      44.894  16.633  71.080  0.00  0.00    +0.000 C 
ATOM     18  O   UNL     1      43.732  16.593  70.567  0.00  0.00    +0.000 OA
BRANCH  17  19
ATOM     19  O   UNL     1      45.630  15.433  71.263  0.00  0.00    +0.000 OA
ATOM     20  H   UNL     1      45.259  14.564  70.935  0.00  0.00    +0.000 HD
ENDBRANCH  17  19
ENDBRANCH  16  17
ENDBRANCH   1  11
TORSDOF 4
ENDMDL
