MODEL 1
REMARK VINA RESULT:    -7.376      0.000      0.000
REMARK INTER + INTRA:         -10.307
REMARK INTER:                  -9.476
REMARK INTRA:                  -0.832
REMARK UNBOUND:                -0.776
REMARK  Name = 
REMARK  7 active torsions:
REMARK  status: ('A' for Active; 'I' for Inactive)
REMARK    1  A    between atoms: C_1  and  O_2
REMARK    2  A    between atoms: O_2  and  C_3
REMARK    3  A    between atoms: C_6  and  C_7
REMARK    4  A    between atoms: C_7  and  C_9
REMARK    5  A    between atoms: C_10  and  C_11
REMARK    6  A    between atoms: C_14  and  O_15
REMARK    7  A    between atoms: C_18  and  O_19
REMARK                            x       y       z     vdW  Elec       q    Type
REMARK                         _______ _______ _______ _____ _____    ______ ____
ROOT
ATOM      1  C   UNL     1      54.687  28.964 197.215  0.00  0.00    +0.000 C 
ATOM      2  O   UNL     1      55.016  28.325 196.167  0.00  0.00    +0.000 OA
ENDROOT
BRANCH   1   6
ATOM      3  C   UNL     1      57.220  32.044 198.778  0.00  0.00    +0.000 A 
ATOM      4  C   UNL     1      56.921  30.940 199.540  0.00  0.00    +0.000 A 
ATOM      5  C   UNL     1      56.103  29.949 199.033  0.00  0.00    +0.000 A 
ATOM      6  C   UNL     1      55.596  30.053 197.760  0.00  0.00    +0.000 A 
ATOM      7  C   UNL     1      55.912  31.140 196.976  0.00  0.00    +0.000 A 
ATOM      8  C   UNL     1      56.738  32.161 197.457  0.00  0.00    +0.000 A 
BRANCH   3  10
ATOM      9  C   UNL     1      57.587  33.656 200.520  0.00  0.00    +0.000 C 
ATOM     10  O   UNL     1      58.004  32.994 199.336  0.00  0.00    +0.000 OA
ENDBRANCH   3  10
BRANCH   7  11
ATOM     11  O   UNL     1      55.391  31.226 195.658  0.00  0.00    +0.000 OA
ATOM     12  H   UNL     1      55.494  32.071 195.133  0.00  0.00    +0.000 HD
ENDBRANCH   7  11
ENDBRANCH   1   6
BRANCH   1  13
ATOM     13  C   UNL     1      53.384  28.637 197.926  0.00  0.00    +0.000 C 
ATOM     14  C   UNL     1      52.455  29.611 198.124  0.00  0.00    +0.000 C 
BRANCH  14  15
ATOM     15  C   UNL     1      51.151  29.285 198.833  0.00  0.00    +0.000 A 
ATOM     16  C   UNL     1      49.959  29.276 198.141  0.00  0.00    +0.000 A 
ATOM     17  C   UNL     1      48.761  28.929 198.772  0.00  0.00    +0.000 A 
ATOM     18  C   UNL     1      48.819  28.572 200.135  0.00  0.00    +0.000 A 
ATOM     19  C   UNL     1      50.010  28.613 200.823  0.00  0.00    +0.000 A 
ATOM     20  C   UNL     1      51.176  28.960 200.168  0.00  0.00    +0.000 A 
BRANCH  18  21
ATOM     21  O   UNL     1      47.715  28.199 200.822  0.00  0.00    +0.000 OA
ATOM     22  H   UNL     1      46.872  27.981 200.330  0.00  0.00    +0.000 HD
ENDBRANCH  18  21
ENDBRANCH  14  15
ENDBRANCH   1  13
TORSDOF 6
ENDMDL
MODEL 2
REMARK VINA RESULT:    -7.242      0.979      1.472
REMARK INTER + INTRA:         -10.134
REMARK INTER:                  -9.407
REMARK INTRA:                  -0.728
REMARK UNBOUND:                -0.776
REMARK  Name = 
REMARK  7 active torsions:
REMARK  status: ('A' for Active; 'I' for Inactive)
REMARK    1  A    between atoms: C_1  and  O_2
REMARK    2  A    between atoms: O_2  and  C_3
REMARK    3  A    between atoms: C_6  and  C_7
REMARK    4  A    between atoms: C_7  and  C_9
REMARK    5  A    between atoms: C_10  and  C_11
REMARK    6  A    between atoms: C_14  and  O_15
REMARK    7  A    between atoms: C_18  and  O_19
REMARK                            x       y       z     vdW  Elec       q    Type
REMARK                         _______ _______ _______ _____ _____    ______ ____
ROOT
ATOM      1  C   UNL     1      53.749  28.922 197.062  0.00  0.00    +0.000 C 
ATOM      2  O   UNL     1      54.081  28.060 196.189  0.00  0.00    +0.000 OA
ENDROOT
BRANCH   1   6
ATOM      3  C   UNL     1      56.668  31.586 198.712  0.00  0.00    +0.000 A 
ATOM      4  C   UNL     1      56.081  30.628 199.503  0.00  0.00    +0.000 A 
ATOM      5  C   UNL     1      55.138  29.771 198.967  0.00  0.00    +0.000 A 
ATOM      6  C   UNL     1      54.796  29.861 197.639  0.00  0.00    +0.000 A 
ATOM      7  C   UNL     1      55.399  30.798 196.830  0.00  0.00    +0.000 A 
ATOM      8  C   UNL     1      56.358  31.680 197.340  0.00  0.00    +0.000 A 
BRANCH   3  10
ATOM      9  C   UNL     1      57.467  32.702 200.685  0.00  0.00    +0.000 C 
ATOM     10  O   UNL     1      57.564  32.413 199.297  0.00  0.00    +0.000 OA
ENDBRANCH   3  10
BRANCH   7  11
ATOM     11  O   UNL     1      55.044  30.870 195.458  0.00  0.00    +0.000 OA
ATOM     12  H   UNL     1      54.142  31.208 195.191  0.00  0.00    +0.000 HD
ENDBRANCH   7  11
ENDBRANCH   1   6
BRANCH   1  13
ATOM     13  C   UNL     1      52.306  29.015 197.529  0.00  0.00    +0.000 C 
ATOM     14  C   UNL     1      51.843  28.159 198.480  0.00  0.00    +0.000 C 
BRANCH  14  15
ATOM     15  C   UNL     1      50.400  28.251 198.948  0.00  0.00    +0.000 A 
ATOM     16  C   UNL     1      50.103  28.687 200.221  0.00  0.00    +0.000 A 
ATOM     17  C   UNL     1      48.778  28.823 200.647  0.00  0.00    +0.000 A 
ATOM     18  C   UNL     1      47.760  28.516 199.720  0.00  0.00    +0.000 A 
ATOM     19  C   UNL     1      48.069  28.054 198.462  0.00  0.00    +0.000 A 
ATOM     20  C   UNL     1      49.389  27.932 198.074  0.00  0.00    +0.000 A 
BRANCH  18  21
ATOM     21  O   UNL     1      46.450  28.641 200.035  0.00  0.00    +0.000 OA
ATOM     22  H   UNL     1      45.863  27.832 200.059  0.00  0.00    +0.000 HD
ENDBRANCH  18  21
ENDBRANCH  14  15
ENDBRANCH   1  13
TORSDOF 6
ENDMDL
MODEL 3
REMARK VINA RESULT:    -7.237     12.280     17.112
REMARK INTER + INTRA:         -10.128
REMARK INTER:                  -9.342
REMARK INTRA:                  -0.786
REMARK UNBOUND:                -0.776
REMARK  Name = 
REMARK  7 active torsions:
REMARK  status: ('A' for Active; 'I' for Inactive)
REMARK    1  A    between atoms: C_1  and  O_2
REMARK    2  A    between atoms: O_2  and  C_3
REMARK    3  A    between atoms: C_6  and  C_7
REMARK    4  A    between atoms: C_7  and  C_9
REMARK    5  A    between atoms: C_10  and  C_11
REMARK    6  A    between atoms: C_14  and  O_15
REMARK    7  A    between atoms: C_18  and  O_19
REMARK                            x       y       z     vdW  Elec       q    Type
REMARK                         _______ _______ _______ _____ _____    ______ ____
ROOT
ATOM      1  C   UNL     1      41.086  23.051 192.026  0.00  0.00    +0.000 C 
ATOM      2  O   UNL     1      40.394  24.115 191.956  0.00  0.00    +0.000 OA
ENDROOT
BRANCH   1   6
ATOM      3  C   UNL     1      39.305  19.288 191.023  0.00  0.00    +0.000 A 
ATOM      4  C   UNL     1      40.496  19.664 190.451  0.00  0.00    +0.000 A 
ATOM      5  C   UNL     1      41.067  20.880 190.776  0.00  0.00    +0.000 A 
ATOM      6  C   UNL     1      40.457  21.711 191.684  0.00  0.00    +0.000 A 
ATOM      7  C   UNL     1      39.278  21.332 192.287  0.00  0.00    +0.000 A 
ATOM      8  C   UNL     1      38.673  20.107 191.981  0.00  0.00    +0.000 A 
BRANCH   3  10
ATOM      9  C   UNL     1      37.924  18.024 189.516  0.00  0.00    +0.000 C 
ATOM     10  O   UNL     1      38.780  18.099 190.647  0.00  0.00    +0.000 OA
ENDBRANCH   3  10
BRANCH   7  11
ATOM     11  O   UNL     1      38.667  22.196 193.232  0.00  0.00    +0.000 OA
ATOM     12  H   UNL     1      38.451  21.862 194.149  0.00  0.00    +0.000 HD
ENDBRANCH   7  11
ENDBRANCH   1   6
BRANCH   1  13
ATOM     13  C   UNL     1      42.543  23.119 192.453  0.00  0.00    +0.000 C 
ATOM     14  C   UNL     1      42.966  22.421 193.542  0.00  0.00    +0.000 C 
BRANCH  14  15
ATOM     15  C   UNL     1      44.423  22.488 193.969  0.00  0.00    +0.000 A 
ATOM     16  C   UNL     1      45.285  21.452 193.684  0.00  0.00    +0.000 A 
ATOM     17  C   UNL     1      46.639  21.523 194.028  0.00  0.00    +0.000 A 
ATOM     18  C   UNL     1      47.091  22.701 194.659  0.00  0.00    +0.000 A 
ATOM     19  C   UNL     1      46.215  23.716 194.964  0.00  0.00    +0.000 A 
ATOM     20  C   UNL     1      44.884  23.613 194.610  0.00  0.00    +0.000 A 
BRANCH  18  21
ATOM     21  O   UNL     1      48.387  22.870 195.006  0.00  0.00    +0.000 OA
ATOM     22  H   UNL     1      48.781  22.324 195.746  0.00  0.00    +0.000 HD
ENDBRANCH  18  21
ENDBRANCH  14  15
ENDBRANCH   1  13
TORSDOF 6
ENDMDL
MODEL 4
REMARK VINA RESULT:    -7.221     11.703     16.618
REMARK INTER + INTRA:         -10.107
REMARK INTER:                  -9.397
REMARK INTRA:                  -0.710
REMARK UNBOUND:                -0.776
REMARK  Name = 
REMARK  7 active torsions:
REMARK  status: ('A' for Active; 'I' for Inactive)
REMARK    1  A    between atoms: C_1  and  O_2
REMARK    2  A    between atoms: O_2  and  C_3
REMARK    3  A    between atoms: C_6  and  C_7
REMARK    4  A    between atoms: C_7  and  C_9
REMARK    5  A    between atoms: C_10  and  C_11
REMARK    6  A    between atoms: C_14  and  O_15
REMARK    7  A    between atoms: C_18  and  O_19
REMARK                            x       y       z     vdW  Elec       q    Type
REMARK                         _______ _______ _______ _____ _____    ______ ____
ROOT
ATOM      1  C   UNL     1      41.470  23.448 193.664  0.00  0.00    +0.000 C 
ATOM      2  O   UNL     1      41.114  24.475 194.321  0.00  0.00    +0.000 OA
ENDROOT
BRANCH   1   6
ATOM      3  C   UNL     1      38.560  21.009 191.683  0.00  0.00    +0.000 A 
ATOM      4  C   UNL     1      39.175  20.561 192.828  0.00  0.00    +0.000 A 
ATOM      5  C   UNL     1      40.115  21.350 193.463  0.00  0.00    +0.000 A 
ATOM      6  C   UNL     1      40.427  22.593 192.965  0.00  0.00    +0.000 A 
ATOM      7  C   UNL     1      39.795  23.065 191.836  0.00  0.00    +0.000 A 
ATOM      8  C   UNL     1      38.839  22.292 191.168  0.00  0.00    +0.000 A 
BRANCH   3  10
ATOM      9  C   UNL     1      37.058  19.141 191.836  0.00  0.00    +0.000 C 
ATOM     10  O   UNL     1      37.668  20.183 191.090  0.00  0.00    +0.000 OA
ENDBRANCH   3  10
BRANCH   7  11
ATOM     11  O   UNL     1      40.120  24.355 191.342  0.00  0.00    +0.000 OA
ATOM     12  H   UNL     1      41.075  24.647 191.292  0.00  0.00    +0.000 HD
ENDBRANCH   7  11
ENDBRANCH   1   6
BRANCH   1  13
ATOM     13  C   UNL     1      42.941  23.074 193.578  0.00  0.00    +0.000 C 
ATOM     14  C   UNL     1      43.538  22.422 194.612  0.00  0.00    +0.000 C 
BRANCH  14  15
ATOM     15  C   UNL     1      45.008  22.046 194.526  0.00  0.00    +0.000 A 
ATOM     16  C   UNL     1      45.387  20.735 194.333  0.00  0.00    +0.000 A 
ATOM     17  C   UNL     1      46.734  20.385 194.203  0.00  0.00    +0.000 A 
ATOM     18  C   UNL     1      47.688  21.423 194.258  0.00  0.00    +0.000 A 
ATOM     19  C   UNL     1      47.299  22.724 194.479  0.00  0.00    +0.000 A 
ATOM     20  C   UNL     1      45.959  23.035 194.603  0.00  0.00    +0.000 A 
BRANCH  18  21
ATOM     21  O   UNL     1      49.011  21.182 194.117  0.00  0.00    +0.000 OA
ATOM     22  H   UNL     1      49.331  20.542 193.418  0.00  0.00    +0.000 HD
ENDBRANCH  18  21
ENDBRANCH  14  15
ENDBRANCH   1  13
TORSDOF 6
ENDMDL
MODEL 5
REMARK VINA RESULT:    -7.135     12.764     16.331
REMARK INTER + INTRA:          -9.996
REMARK INTER:                  -9.221
REMARK INTRA:                  -0.776
REMARK UNBOUND:                -0.776
REMARK  Name = 
REMARK  7 active torsions:
REMARK  status: ('A' for Active; 'I' for Inactive)
REMARK    1  A    between atoms: C_1  and  O_2
REMARK    2  A    between atoms: O_2  and  C_3
REMARK    3  A    between atoms: C_6  and  C_7
REMARK    4  A    between atoms: C_7  and  C_9
REMARK    5  A    between atoms: C_10  and  C_11
REMARK    6  A    between atoms: C_14  and  O_15
REMARK    7  A    between atoms: C_18  and  O_19
REMARK                            x       y       z     vdW  Elec       q    Type
REMARK                         _______ _______ _______ _____ _____    ______ ____
ROOT
ATOM      1  C   UNL     1      41.406  23.571 192.185  0.00  0.00    +0.000 C 
ATOM      2  O   UNL     1      40.792  24.667 192.375  0.00  0.00    +0.000 OA
ENDROOT
BRANCH   1   6
ATOM      3  C   UNL     1      45.330  22.966 193.792  0.00  0.00    +0.000 A 
ATOM      4  C   UNL     1      45.061  22.647 192.482  0.00  0.00    +0.000 A 
ATOM      5  C   UNL     1      43.794  22.842 191.968  0.00  0.00    +0.000 A 
ATOM      6  C   UNL     1      42.800  23.371 192.757  0.00  0.00    +0.000 A 
ATOM      7  C   UNL     1      43.065  23.722 194.061  0.00  0.00    +0.000 A 
ATOM      8  C   UNL     1      44.337  23.538 194.614  0.00  0.00    +0.000 A 
BRANCH   3  10
ATOM      9  C   UNL     1      47.126  21.419 194.182  0.00  0.00    +0.000 C 
ATOM     10  O   UNL     1      46.580  22.728 194.248  0.00  0.00    +0.000 OA
ENDBRANCH   3  10
BRANCH   7  11
ATOM     11  O   UNL     1      42.031  24.279 194.859  0.00  0.00    +0.000 OA
ATOM     12  H   UNL     1      42.244  24.986 195.533  0.00  0.00    +0.000 HD
ENDBRANCH   7  11
ENDBRANCH   1   6
BRANCH   1  13
ATOM     13  C   UNL     1      40.747  22.460 191.385  0.00  0.00    +0.000 C 
ATOM     14  C   UNL     1      40.462  21.270 191.980  0.00  0.00    +0.000 C 
BRANCH  14  15
ATOM     15  C   UNL     1      39.802  20.159 191.181  0.00  0.00    +0.000 A 
ATOM     16  C   UNL     1      38.434  19.993 191.208  0.00  0.00    +0.000 A 
ATOM     17  C   UNL     1      37.811  19.006 190.438  0.00  0.00    +0.000 A 
ATOM     18  C   UNL     1      38.631  18.200 189.621  0.00  0.00    +0.000 A 
ATOM     19  C   UNL     1      39.998  18.356 189.625  0.00  0.00    +0.000 A 
ATOM     20  C   UNL     1      40.581  19.342 190.398  0.00  0.00    +0.000 A 
BRANCH  18  21
ATOM     21  O   UNL     1      38.115  17.237 188.825  0.00  0.00    +0.000 OA
ATOM     22  H   UNL     1      38.466  16.302 188.880  0.00  0.00    +0.000 HD
ENDBRANCH  18  21
ENDBRANCH  14  15
ENDBRANCH   1  13
TORSDOF 6
ENDMDL
