MODEL 1
REMARK VINA RESULT:    -7.040      0.000      0.000
REMARK INTER + INTRA:          -9.347
REMARK INTER:                  -8.901
REMARK INTRA:                  -0.446
REMARK UNBOUND:                -0.455
REMARK  Name = 
REMARK  7 active torsions:
REMARK  status: ('A' for Active; 'I' for Inactive)
REMARK    1  A    between atoms: C_1  and  O_2
REMARK    2  A    between atoms: O_2  and  C_3
REMARK    3  A    between atoms: C_5  and  C_6
REMARK    4  A    between atoms: C_7  and  C_8
REMARK    5  A    between atoms: C_11  and  O_12
REMARK    6  A    between atoms: C_16  and  O_17
REMARK    7  A    between atoms: O_17  and  C_18
REMARK                            x       y       z     vdW  Elec       q    Type
REMARK                         _______ _______ _______ _____ _____    ______ ____
ROOT
ATOM      1  C   UNL     1      39.741  24.039 193.438  0.00  0.00    +0.000 A 
ATOM      2  C   UNL     1      41.042  23.738 193.812  0.00  0.00    +0.000 A 
ATOM      3  C   UNL     1      41.585  22.615 193.144  0.00  0.00    +0.000 A 
ATOM      4  C   UNL     1      40.870  21.705 192.507  0.00  0.00    +0.000 A 
ATOM      5  C   UNL     1      39.573  22.035 192.228  0.00  0.00    +0.000 A 
ATOM      6  C   UNL     1      39.011  23.181 192.736  0.00  0.00    +0.000 A 
ENDROOT
BRANCH   1   8
ATOM      7  C   UNL     1      39.648  25.735 195.216  0.00  0.00    +0.000 C 
ATOM      8  O   UNL     1      39.197  25.240 193.964  0.00  0.00    +0.000 OA
ENDBRANCH   1   8
BRANCH   3   9
ATOM      9  C   UNL     1      43.094  22.445 193.160  0.00  0.00    +0.000 C 
ATOM     10  C   UNL     1      43.735  22.162 194.326  0.00  0.00    +0.000 C 
BRANCH  10  11
ATOM     11  C   UNL     1      45.245  21.992 194.342  0.00  0.00    +0.000 A 
ATOM     12  C   UNL     1      46.095  23.045 194.640  0.00  0.00    +0.000 A 
ATOM     13  C   UNL     1      47.458  22.775 194.375  0.00  0.00    +0.000 A 
ATOM     14  C   UNL     1      47.964  21.566 194.213  0.00  0.00    +0.000 A 
ATOM     15  C   UNL     1      47.068  20.557 193.991  0.00  0.00    +0.000 A 
ATOM     16  C   UNL     1      45.716  20.774 194.102  0.00  0.00    +0.000 A 
BRANCH  14  17
ATOM     17  O   UNL     1      49.362  21.327 194.268  0.00  0.00    +0.000 OA
ATOM     18  H   UNL     1      49.912  21.384 193.434  0.00  0.00    +0.000 HD
ENDBRANCH  14  17
ENDBRANCH  10  11
ENDBRANCH   3   9
BRANCH   5  19
ATOM     19  O   UNL     1      38.796  21.183 191.400  0.00  0.00    +0.000 OA
ATOM     20  C   UNL     1      38.909  19.773 191.526  0.00  0.00    +0.000 C 
ENDBRANCH   5  19
TORSDOF 5
ENDMDL
MODEL 2
REMARK VINA RESULT:    -7.037      9.784     14.345
REMARK INTER + INTRA:          -9.343
REMARK INTER:                  -8.893
REMARK INTRA:                  -0.450
REMARK UNBOUND:                -0.455
REMARK  Name = 
REMARK  7 active torsions:
REMARK  status: ('A' for Active; 'I' for Inactive)
REMARK    1  A    between atoms: C_1  and  O_2
REMARK    2  A    between atoms: O_2  and  C_3
REMARK    3  A    between atoms: C_5  and  C_6
REMARK    4  A    between atoms: C_7  and  C_8
REMARK    5  A    between atoms: C_11  and  O_12
REMARK    6  A    between atoms: C_16  and  O_17
REMARK    7  A    between atoms: O_17  and  C_18
REMARK                            x       y       z     vdW  Elec       q    Type
REMARK                         _______ _______ _______ _____ _____    ______ ____
ROOT
ATOM      1  C   UNL     1      55.692  29.987 197.979  0.00  0.00    +0.000 A 
ATOM      2  C   UNL     1      54.368  30.269 198.275  0.00  0.00    +0.000 A 
ATOM      3  C   UNL     1      53.455  29.851 197.278  0.00  0.00    +0.000 A 
ATOM      4  C   UNL     1      53.787  29.557 196.034  0.00  0.00    +0.000 A 
ATOM      5  C   UNL     1      55.118  29.358 195.792  0.00  0.00    +0.000 A 
ATOM      6  C   UNL     1      56.060  29.618 196.757  0.00  0.00    +0.000 A 
ENDROOT
BRANCH   1   8
ATOM      7  C   UNL     1      56.830  31.577 199.470  0.00  0.00    +0.000 C 
ATOM      8  O   UNL     1      56.637  30.249 199.005  0.00  0.00    +0.000 OA
ENDBRANCH   1   8
BRANCH   3   9
ATOM      9  C   UNL     1      51.990  29.733 197.665  0.00  0.00    +0.000 C 
ATOM     10  C   UNL     1      51.558  28.651 198.368  0.00  0.00    +0.000 C 
BRANCH  10  11
ATOM     11  C   UNL     1      50.093  28.532 198.755  0.00  0.00    +0.000 A 
ATOM     12  C   UNL     1      49.187  27.832 197.975  0.00  0.00    +0.000 A 
ATOM     13  C   UNL     1      47.837  28.025 198.352  0.00  0.00    +0.000 A 
ATOM     14  C   UNL     1      47.446  28.505 199.518  0.00  0.00    +0.000 A 
ATOM     15  C   UNL     1      48.404  29.125 200.272  0.00  0.00    +0.000 A 
ATOM     16  C   UNL     1      49.726  29.092 199.901  0.00  0.00    +0.000 A 
BRANCH  14  17
ATOM     17  O   UNL     1      46.104  28.384 199.965  0.00  0.00    +0.000 OA
ATOM     18  H   UNL     1      45.790  28.912 200.754  0.00  0.00    +0.000 HD
ENDBRANCH  14  17
ENDBRANCH  10  11
ENDBRANCH   3   9
BRANCH   5  19
ATOM     19  O   UNL     1      55.534  28.873 194.523  0.00  0.00    +0.000 OA
ATOM     20  C   UNL     1      55.799  27.490 194.343  0.00  0.00    +0.000 C 
ENDBRANCH   5  19
TORSDOF 5
ENDMDL
MODEL 3
REMARK VINA RESULT:    -7.014      9.872     14.790
REMARK INTER + INTRA:          -9.315
REMARK INTER:                  -8.853
REMARK INTRA:                  -0.461
REMARK UNBOUND:                -0.455
REMARK  Name = 
REMARK  7 active torsions:
REMARK  status: ('A' for Active; 'I' for Inactive)
REMARK    1  A    between atoms: C_1  and  O_2
REMARK    2  A    between atoms: O_2  and  C_3
REMARK    3  A    between atoms: C_5  and  C_6
REMARK    4  A    between atoms: C_7  and  C_8
REMARK    5  A    between atoms: C_11  and  O_12
REMARK    6  A    between atoms: C_16  and  O_17
REMARK    7  A    between atoms: O_17  and  C_18
REMARK                            x       y       z     vdW  Elec       q    Type
REMARK                         _______ _______ _______ _____ _____    ______ ____
ROOT
ATOM      1  C   UNL     1      55.418  29.221 196.508  0.00  0.00    +0.000 A 
ATOM      2  C   UNL     1      54.155  28.852 196.943  0.00  0.00    +0.000 A 
ATOM      3  C   UNL     1      53.744  29.505 198.129  0.00  0.00    +0.000 A 
ATOM      4  C   UNL     1      54.559  30.120 198.966  0.00  0.00    +0.000 A 
ATOM      5  C   UNL     1      55.815  30.395 198.500  0.00  0.00    +0.000 A 
ATOM      6  C   UNL     1      56.244  29.903 197.292  0.00  0.00    +0.000 A 
ENDROOT
BRANCH   1   8
ATOM      7  C   UNL     1      55.656  27.332 194.951  0.00  0.00    +0.000 C 
ATOM      8  O   UNL     1      55.824  28.711 195.246  0.00  0.00    +0.000 OA
ENDBRANCH   1   8
BRANCH   3   9
ATOM      9  C   UNL     1      52.261  29.498 198.463  0.00  0.00    +0.000 C 
ATOM     10  C   UNL     1      51.588  28.318 198.543  0.00  0.00    +0.000 C 
BRANCH  10  11
ATOM     11  C   UNL     1      50.105  28.311 198.876  0.00  0.00    +0.000 A 
ATOM     12  C   UNL     1      49.170  27.732 198.033  0.00  0.00    +0.000 A 
ATOM     13  C   UNL     1      47.830  28.026 198.376  0.00  0.00    +0.000 A 
ATOM     14  C   UNL     1      47.440  28.482 199.552  0.00  0.00    +0.000 A 
ATOM     15  C   UNL     1      48.420  28.978 200.367  0.00  0.00    +0.000 A 
ATOM     16  C   UNL     1      49.747  28.846 200.038  0.00  0.00    +0.000 A 
BRANCH  14  17
ATOM     17  O   UNL     1      46.077  28.459 199.950  0.00  0.00    +0.000 OA
ATOM     18  H   UNL     1      45.386  28.068 199.342  0.00  0.00    +0.000 HD
ENDBRANCH  14  17
ENDBRANCH  10  11
ENDBRANCH   3   9
BRANCH   5  19
ATOM     19  O   UNL     1      56.688  31.202 199.276  0.00  0.00    +0.000 OA
ATOM     20  C   UNL     1      56.192  32.360 199.932  0.00  0.00    +0.000 C 
ENDBRANCH   5  19
TORSDOF 5
ENDMDL
MODEL 4
REMARK VINA RESULT:    -6.863      0.498      3.166
REMARK INTER + INTRA:          -9.124
REMARK INTER:                  -8.663
REMARK INTRA:                  -0.461
REMARK UNBOUND:                -0.455
REMARK  Name = 
REMARK  7 active torsions:
REMARK  status: ('A' for Active; 'I' for Inactive)
REMARK    1  A    between atoms: C_1  and  O_2
REMARK    2  A    between atoms: O_2  and  C_3
REMARK    3  A    between atoms: C_5  and  C_6
REMARK    4  A    between atoms: C_7  and  C_8
REMARK    5  A    between atoms: C_11  and  O_12
REMARK    6  A    between atoms: C_16  and  O_17
REMARK    7  A    between atoms: O_17  and  C_18
REMARK                            x       y       z     vdW  Elec       q    Type
REMARK                         _______ _______ _______ _____ _____    ______ ____
ROOT
ATOM      1  C   UNL     1      39.489  22.284 192.455  0.00  0.00    +0.000 A 
ATOM      2  C   UNL     1      40.828  22.092 192.151  0.00  0.00    +0.000 A 
ATOM      3  C   UNL     1      41.679  23.108 192.645  0.00  0.00    +0.000 A 
ATOM      4  C   UNL     1      41.273  24.303 193.033  0.00  0.00    +0.000 A 
ATOM      5  C   UNL     1      39.930  24.447 193.251  0.00  0.00    +0.000 A 
ATOM      6  C   UNL     1      39.049  23.448 192.917  0.00  0.00    +0.000 A 
ENDROOT
BRANCH   1   8
ATOM      7  C   UNL     1      39.074  20.137 191.330  0.00  0.00    +0.000 C 
ATOM      8  O   UNL     1      38.607  21.224 192.115  0.00  0.00    +0.000 OA
ENDBRANCH   1   8
BRANCH   3   9
ATOM      9  C   UNL     1      43.165  22.804 192.733  0.00  0.00    +0.000 C 
ATOM     10  C   UNL     1      43.670  22.191 193.838  0.00  0.00    +0.000 C 
BRANCH  10  11
ATOM     11  C   UNL     1      45.156  21.887 193.927  0.00  0.00    +0.000 A 
ATOM     12  C   UNL     1      45.638  20.589 193.909  0.00  0.00    +0.000 A 
ATOM     13  C   UNL     1      47.009  20.481 194.240  0.00  0.00    +0.000 A 
ATOM     14  C   UNL     1      47.866  21.486 194.219  0.00  0.00    +0.000 A 
ATOM     15  C   UNL     1      47.328  22.742 194.169  0.00  0.00    +0.000 A 
ATOM     16  C   UNL     1      45.980  22.927 193.978  0.00  0.00    +0.000 A 
BRANCH  14  17
ATOM     17  O   UNL     1      49.270  21.273 194.248  0.00  0.00    +0.000 OA
ATOM     18  H   UNL     1      49.691  20.631 193.608  0.00  0.00    +0.000 HD
ENDBRANCH  14  17
ENDBRANCH  10  11
ENDBRANCH   3   9
BRANCH   5  19
ATOM     19  O   UNL     1      39.440  25.647 193.832  0.00  0.00    +0.000 OA
ATOM     20  C   UNL     1      39.451  25.810 195.242  0.00  0.00    +0.000 C 
ENDBRANCH   5  19
TORSDOF 5
ENDMDL
MODEL 5
REMARK VINA RESULT:    -6.745     11.303     15.686
REMARK INTER + INTRA:          -8.975
REMARK INTER:                  -8.520
REMARK INTRA:                  -0.455
REMARK UNBOUND:                -0.455
REMARK  Name = 
REMARK  7 active torsions:
REMARK  status: ('A' for Active; 'I' for Inactive)
REMARK    1  A    between atoms: C_1  and  O_2
REMARK    2  A    between atoms: O_2  and  C_3
REMARK    3  A    between atoms: C_5  and  C_6
REMARK    4  A    between atoms: C_7  and  C_8
REMARK    5  A    between atoms: C_11  and  O_12
REMARK    6  A    between atoms: C_16  and  O_17
REMARK    7  A    between atoms: O_17  and  C_18
REMARK                            x       y       z     vdW  Elec       q    Type
REMARK                         _______ _______ _______ _____ _____    ______ ____
ROOT
ATOM      1  C   UNL     1      55.158  32.768 200.181  0.00  0.00    +0.000 A 
ATOM      2  C   UNL     1      54.039  32.348 199.477  0.00  0.00    +0.000 A 
ATOM      3  C   UNL     1      54.059  30.975 199.135  0.00  0.00    +0.000 A 
ATOM      4  C   UNL     1      55.142  30.219 199.133  0.00  0.00    +0.000 A 
ATOM      5  C   UNL     1      56.234  30.720 199.786  0.00  0.00    +0.000 A 
ATOM      6  C   UNL     1      56.243  32.008 200.264  0.00  0.00    +0.000 A 
ENDROOT
BRANCH   1   8
ATOM      7  C   UNL     1      55.040  34.329 202.076  0.00  0.00    +0.000 C 
ATOM      8  O   UNL     1      55.127  34.097 200.678  0.00  0.00    +0.000 OA
ENDBRANCH   1   8
BRANCH   3   9
ATOM      9  C   UNL     1      52.743  30.326 198.743  0.00  0.00    +0.000 C 
ATOM     10  C   UNL     1      52.170  29.401 199.560  0.00  0.00    +0.000 C 
BRANCH  10  11
ATOM     11  C   UNL     1      50.854  28.750 199.168  0.00  0.00    +0.000 A 
ATOM     12  C   UNL     1      50.695  28.097 197.956  0.00  0.00    +0.000 A 
ATOM     13  C   UNL     1      49.353  27.766 197.655  0.00  0.00    +0.000 A 
ATOM     14  C   UNL     1      48.375  27.726 198.541  0.00  0.00    +0.000 A 
ATOM     15  C   UNL     1      48.618  28.330 199.743  0.00  0.00    +0.000 A 
ATOM     16  C   UNL     1      49.871  28.796 200.060  0.00  0.00    +0.000 A 
BRANCH  14  17
ATOM     17  O   UNL     1      47.136  27.090 198.260  0.00  0.00    +0.000 OA
ATOM     18  H   UNL     1      46.567  27.416 197.505  0.00  0.00    +0.000 HD
ENDBRANCH  14  17
ENDBRANCH  10  11
ENDBRANCH   3   9
BRANCH   5  19
ATOM     19  O   UNL     1      57.376  29.897 199.973  0.00  0.00    +0.000 OA
ATOM     20  C   UNL     1      57.544  29.180 201.187  0.00  0.00    +0.000 C 
ENDBRANCH   5  19
TORSDOF 5
ENDMDL
