MODEL 1
REMARK VINA RESULT:    -7.263      0.000      0.000
REMARK INTER + INTRA:         -12.850
REMARK INTER:                 -10.032
REMARK INTRA:                  -2.818
REMARK UNBOUND:                -1.977
REMARK  Name = 
REMARK  10 active torsions:
REMARK  status: ('A' for Active; 'I' for Inactive)
REMARK    1  A    between atoms: C_1  and  O_2
REMARK    2  A    between atoms: O_2  and  C_3
REMARK    3  A    between atoms: C_5  and  C_6
REMARK    4  A    between atoms: C_7  and  C_8
REMARK    5  A    between atoms: C_8  and  C_10
REMARK    6  A    between atoms: C_10  and  C_11
REMARK    7  A    between atoms: C_11  and  C_12
REMARK    8  A    between atoms: C_12  and  C_13
REMARK    9  A    between atoms: C_13  and  C_14
REMARK   10  A    between atoms: C_22  and  O_23
REMARK                            x       y       z     vdW  Elec       q    Type
REMARK                         _______ _______ _______ _____ _____    ______ ____
ROOT
ATOM      1  C   UNL     1      43.478  23.751 194.619  0.00  0.00    +0.000 C 
ATOM      2  C   UNL     1      44.300  23.219 193.674  0.00  0.00    +0.000 C 
ENDROOT
BRANCH   1   5
ATOM      3  C   UNL     1      40.117  25.470 194.788  0.00  0.00    +0.000 A 
ATOM      4  C   UNL     1      41.281  24.841 195.161  0.00  0.00    +0.000 A 
ATOM      5  C   UNL     1      42.202  24.464 194.203  0.00  0.00    +0.000 A 
ATOM      6  C   UNL     1      41.970  24.732 192.876  0.00  0.00    +0.000 A 
ATOM      7  C   UNL     1      40.820  25.387 192.492  0.00  0.00    +0.000 A 
ATOM      8  C   UNL     1      39.867  25.783 193.435  0.00  0.00    +0.000 A 
BRANCH   3  10
ATOM      9  C   UNL     1      39.559  25.444 197.105  0.00  0.00    +0.000 C 
ATOM     10  O   UNL     1      39.241  25.793 195.766  0.00  0.00    +0.000 OA
ENDBRANCH   3  10
BRANCH   8  11
ATOM     11  O   UNL     1      38.690  26.475 193.046  0.00  0.00    +0.000 OA
ATOM     12  H   UNL     1      37.950  26.613 193.705  0.00  0.00    +0.000 HD
ENDBRANCH   8  11
ENDBRANCH   1   5
BRANCH   2  13
ATOM     13  C   UNL     1      45.575  22.506 194.090  0.00  0.00    +0.000 C 
ATOM     14  O   UNL     1      46.609  23.179 194.399  0.00  0.00    +0.000 OA
BRANCH  13  15
ATOM     15  C   UNL     1      45.617  20.987 194.136  0.00  0.00    +0.000 C 
BRANCH  15  16
ATOM     16  C   UNL     1      44.469  20.475 194.992  0.00  0.00    +0.000 C 
BRANCH  16  17
ATOM     17  C   UNL     1      43.448  19.777 194.106  0.00  0.00    +0.000 C 
BRANCH  17  18
ATOM     18  C   UNL     1      42.051  20.240 194.485  0.00  0.00    +0.000 C 
BRANCH  18  19
ATOM     19  C   UNL     1      41.419  20.962 193.306  0.00  0.00    +0.000 A 
ATOM     20  C   UNL     1      40.170  21.550 193.423  0.00  0.00    +0.000 A 
ATOM     21  C   UNL     1      39.579  21.891 192.183  0.00  0.00    +0.000 A 
ATOM     22  C   UNL     1      40.238  21.999 191.044  0.00  0.00    +0.000 A 
ATOM     23  C   UNL     1      41.494  21.458 191.014  0.00  0.00    +0.000 A 
ATOM     24  C   UNL     1      42.087  20.985 192.159  0.00  0.00    +0.000 A 
ENDBRANCH  18  19
ENDBRANCH  17  18
ENDBRANCH  16  17
ENDBRANCH  15  16
ENDBRANCH  13  15
ENDBRANCH   2  13
TORSDOF 9
ENDMDL
MODEL 2
REMARK VINA RESULT:    -7.155     10.965     14.584
REMARK INTER + INTRA:         -12.687
REMARK INTER:                  -9.745
REMARK INTRA:                  -2.942
REMARK UNBOUND:                -1.977
REMARK  Name = 
REMARK  10 active torsions:
REMARK  status: ('A' for Active; 'I' for Inactive)
REMARK    1  A    between atoms: C_1  and  O_2
REMARK    2  A    between atoms: O_2  and  C_3
REMARK    3  A    between atoms: C_5  and  C_6
REMARK    4  A    between atoms: C_7  and  C_8
REMARK    5  A    between atoms: C_8  and  C_10
REMARK    6  A    between atoms: C_10  and  C_11
REMARK    7  A    between atoms: C_11  and  C_12
REMARK    8  A    between atoms: C_12  and  C_13
REMARK    9  A    between atoms: C_13  and  C_14
REMARK   10  A    between atoms: C_22  and  O_23
REMARK                            x       y       z     vdW  Elec       q    Type
REMARK                         _______ _______ _______ _____ _____    ______ ____
ROOT
ATOM      1  C   UNL     1      51.879  27.795 197.245  0.00  0.00    +0.000 C 
ATOM      2  C   UNL     1      50.883  28.705 197.425  0.00  0.00    +0.000 C 
ENDROOT
BRANCH   1   5
ATOM      3  C   UNL     1      55.118  27.482 195.324  0.00  0.00    +0.000 A 
ATOM      4  C   UNL     1      54.045  27.184 196.131  0.00  0.00    +0.000 A 
ATOM      5  C   UNL     1      53.052  28.122 196.336  0.00  0.00    +0.000 A 
ATOM      6  C   UNL     1      53.121  29.349 195.723  0.00  0.00    +0.000 A 
ATOM      7  C   UNL     1      54.176  29.649 194.889  0.00  0.00    +0.000 A 
ATOM      8  C   UNL     1      55.198  28.723 194.658  0.00  0.00    +0.000 A 
BRANCH   3  10
ATOM      9  C   UNL     1      55.855  25.258 195.762  0.00  0.00    +0.000 C 
ATOM     10  O   UNL     1      56.072  26.535 195.180  0.00  0.00    +0.000 OA
ENDBRANCH   3  10
BRANCH   8  11
ATOM     11  O   UNL     1      56.278  29.021 193.786  0.00  0.00    +0.000 OA
ATOM     12  H   UNL     1      56.872  29.803 193.974  0.00  0.00    +0.000 HD
ENDBRANCH   8  11
ENDBRANCH   1   5
BRANCH   2  13
ATOM     13  C   UNL     1      49.710  28.378 198.334  0.00  0.00    +0.000 C 
ATOM     14  O   UNL     1      48.751  27.663 197.902  0.00  0.00    +0.000 OA
BRANCH  13  15
ATOM     15  C   UNL     1      49.682  28.905 199.759  0.00  0.00    +0.000 C 
BRANCH  15  16
ATOM     16  C   UNL     1      50.839  28.307 200.543  0.00  0.00    +0.000 C 
BRANCH  16  17
ATOM     17  C   UNL     1      51.849  29.397 200.867  0.00  0.00    +0.000 C 
BRANCH  17  18
ATOM     18  C   UNL     1      53.251  28.895 200.560  0.00  0.00    +0.000 C 
BRANCH  18  19
ATOM     19  C   UNL     1      53.895  29.796 199.518  0.00  0.00    +0.000 A 
ATOM     20  C   UNL     1      55.117  29.467 198.956  0.00  0.00    +0.000 A 
ATOM     21  C   UNL     1      55.736  30.535 198.264  0.00  0.00    +0.000 A 
ATOM     22  C   UNL     1      55.111  31.624 197.854  0.00  0.00    +0.000 A 
ATOM     23  C   UNL     1      53.876  31.856 198.395  0.00  0.00    +0.000 A 
ATOM     24  C   UNL     1      53.264  30.916 199.187  0.00  0.00    +0.000 A 
ENDBRANCH  18  19
ENDBRANCH  17  18
ENDBRANCH  16  17
ENDBRANCH  15  16
ENDBRANCH  13  15
ENDBRANCH   2  13
TORSDOF 9
ENDMDL
MODEL 3
REMARK VINA RESULT:    -6.958     11.319     14.181
REMARK INTER + INTRA:         -12.393
REMARK INTER:                 -10.791
REMARK INTRA:                  -1.602
REMARK UNBOUND:                -1.977
REMARK  Name = 
REMARK  10 active torsions:
REMARK  status: ('A' for Active; 'I' for Inactive)
REMARK    1  A    between atoms: C_1  and  O_2
REMARK    2  A    between atoms: O_2  and  C_3
REMARK    3  A    between atoms: C_5  and  C_6
REMARK    4  A    between atoms: C_7  and  C_8
REMARK    5  A    between atoms: C_8  and  C_10
REMARK    6  A    between atoms: C_10  and  C_11
REMARK    7  A    between atoms: C_11  and  C_12
REMARK    8  A    between atoms: C_12  and  C_13
REMARK    9  A    between atoms: C_13  and  C_14
REMARK   10  A    between atoms: C_22  and  O_23
REMARK                            x       y       z     vdW  Elec       q    Type
REMARK                         _______ _______ _______ _____ _____    ______ ____
ROOT
ATOM      1  C   UNL     1      51.755  28.024 196.898  0.00  0.00    +0.000 C 
ATOM      2  C   UNL     1      53.059  27.974 197.284  0.00  0.00    +0.000 C 
ENDROOT
BRANCH   1   5
ATOM      3  C   UNL     1      49.972  28.527 200.192  0.00  0.00    +0.000 A 
ATOM      4  C   UNL     1      50.960  28.477 199.237  0.00  0.00    +0.000 A 
ATOM      5  C   UNL     1      50.655  28.097 197.944  0.00  0.00    +0.000 A 
ATOM      6  C   UNL     1      49.362  27.786 197.601  0.00  0.00    +0.000 A 
ATOM      7  C   UNL     1      48.359  27.860 198.542  0.00  0.00    +0.000 A 
ATOM      8  C   UNL     1      48.632  28.241 199.860  0.00  0.00    +0.000 A 
BRANCH   3  10
ATOM      9  C   UNL     1      51.610  28.481 201.923  0.00  0.00    +0.000 C 
ATOM     10  O   UNL     1      50.334  28.881 201.446  0.00  0.00    +0.000 OA
ENDBRANCH   3  10
BRANCH   8  11
ATOM     11  O   UNL     1      47.598  28.337 200.828  0.00  0.00    +0.000 OA
ATOM     12  H   UNL     1      47.756  28.834 201.680  0.00  0.00    +0.000 HD
ENDBRANCH   8  11
ENDBRANCH   1   5
BRANCH   2  13
ATOM     13  C   UNL     1      54.158  27.901 196.237  0.00  0.00    +0.000 C 
ATOM     14  O   UNL     1      54.217  26.909 195.444  0.00  0.00    +0.000 OA
BRANCH  13  15
ATOM     15  C   UNL     1      55.190  29.014 196.139  0.00  0.00    +0.000 C 
BRANCH  15  16
ATOM     16  C   UNL     1      54.493  30.321 195.799  0.00  0.00    +0.000 C 
BRANCH  16  17
ATOM     17  C   UNL     1      54.727  31.326 196.916  0.00  0.00    +0.000 C 
BRANCH  17  18
ATOM     18  C   UNL     1      53.475  31.431 197.772  0.00  0.00    +0.000 C 
BRANCH  18  19
ATOM     19  C   UNL     1      53.868  31.726 199.210  0.00  0.00    +0.000 A 
ATOM     20  C   UNL     1      54.325  32.980 199.577  0.00  0.00    +0.000 A 
ATOM     21  C   UNL     1      54.950  33.014 200.847  0.00  0.00    +0.000 A 
ATOM     22  C   UNL     1      54.817  32.081 201.772  0.00  0.00    +0.000 A 
ATOM     23  C   UNL     1      54.295  30.886 201.360  0.00  0.00    +0.000 A 
ATOM     24  C   UNL     1      53.785  30.737 200.093  0.00  0.00    +0.000 A 
ENDBRANCH  18  19
ENDBRANCH  17  18
ENDBRANCH  16  17
ENDBRANCH  15  16
ENDBRANCH  13  15
ENDBRANCH   2  13
TORSDOF 9
ENDMDL
MODEL 4
REMARK VINA RESULT:    -6.814     11.046     13.743
REMARK INTER + INTRA:         -12.177
REMARK INTER:                 -10.200
REMARK INTRA:                  -1.977
REMARK UNBOUND:                -1.977
REMARK  Name = 
REMARK  10 active torsions:
REMARK  status: ('A' for Active; 'I' for Inactive)
REMARK    1  A    between atoms: C_1  and  O_2
REMARK    2  A    between atoms: O_2  and  C_3
REMARK    3  A    between atoms: C_5  and  C_6
REMARK    4  A    between atoms: C_7  and  C_8
REMARK    5  A    between atoms: C_8  and  C_10
REMARK    6  A    between atoms: C_10  and  C_11
REMARK    7  A    between atoms: C_11  and  C_12
REMARK    8  A    between atoms: C_12  and  C_13
REMARK    9  A    between atoms: C_13  and  C_14
REMARK   10  A    between atoms: C_22  and  O_23
REMARK                            x       y       z     vdW  Elec       q    Type
REMARK                         _______ _______ _______ _____ _____    ______ ____
ROOT
ATOM      1  C   UNL     1      52.961  28.915 199.243  0.00  0.00    +0.000 C 
ATOM      2  C   UNL     1      53.147  30.063 199.949  0.00  0.00    +0.000 C 
ENDROOT
BRANCH   1   5
ATOM      3  C   UNL     1      49.271  28.128 199.440  0.00  0.00    +0.000 A 
ATOM      4  C   UNL     1      50.538  28.537 199.783  0.00  0.00    +0.000 A 
ATOM      5  C   UNL     1      51.558  28.481 198.853  0.00  0.00    +0.000 A 
ATOM      6  C   UNL     1      51.309  28.036 197.578  0.00  0.00    +0.000 A 
ATOM      7  C   UNL     1      50.037  27.652 197.214  0.00  0.00    +0.000 A 
ATOM      8  C   UNL     1      48.981  27.695 198.130  0.00  0.00    +0.000 A 
BRANCH   3  10
ATOM      9  C   UNL     1      47.731  29.437 200.705  0.00  0.00    +0.000 C 
ATOM     10  O   UNL     1      48.318  28.181 200.398  0.00  0.00    +0.000 OA
ENDBRANCH   3  10
BRANCH   8  11
ATOM     11  O   UNL     1      47.665  27.317 197.754  0.00  0.00    +0.000 OA
ATOM     12  H   UNL     1      47.293  27.609 196.872  0.00  0.00    +0.000 HD
ENDBRANCH   8  11
ENDBRANCH   1   5
BRANCH   2  13
ATOM     13  C   UNL     1      54.551  30.496 200.339  0.00  0.00    +0.000 C 
ATOM     14  O   UNL     1      55.149  29.923 201.303  0.00  0.00    +0.000 OA
BRANCH  13  15
ATOM     15  C   UNL     1      55.240  31.617 199.577  0.00  0.00    +0.000 C 
BRANCH  15  16
ATOM     16  C   UNL     1      54.193  32.557 199.002  0.00  0.00    +0.000 C 
BRANCH  16  17
ATOM     17  C   UNL     1      53.989  32.248 197.527  0.00  0.00    +0.000 C 
BRANCH  17  18
ATOM     18  C   UNL     1      55.261  31.643 196.957  0.00  0.00    +0.000 C 
BRANCH  18  19
ATOM     19  C   UNL     1      54.946  30.293 196.334  0.00  0.00    +0.000 A 
ATOM     20  C   UNL     1      55.865  29.258 196.382  0.00  0.00    +0.000 A 
ATOM     21  C   UNL     1      55.577  28.192 195.497  0.00  0.00    +0.000 A 
ATOM     22  C   UNL     1      54.399  27.982 194.938  0.00  0.00    +0.000 A 
ATOM     23  C   UNL     1      53.509  29.020 194.984  0.00  0.00    +0.000 A 
ATOM     24  C   UNL     1      53.777  30.147 195.720  0.00  0.00    +0.000 A 
ENDBRANCH  18  19
ENDBRANCH  17  18
ENDBRANCH  16  17
ENDBRANCH  15  16
ENDBRANCH  13  15
ENDBRANCH   2  13
TORSDOF 9
ENDMDL
MODEL 5
REMARK VINA RESULT:    -6.800     11.002     13.900
REMARK INTER + INTRA:         -12.157
REMARK INTER:                 -10.480
REMARK INTRA:                  -1.677
REMARK UNBOUND:                -1.977
REMARK  Name = 
REMARK  10 active torsions:
REMARK  status: ('A' for Active; 'I' for Inactive)
REMARK    1  A    between atoms: C_1  and  O_2
REMARK    2  A    between atoms: O_2  and  C_3
REMARK    3  A    between atoms: C_5  and  C_6
REMARK    4  A    between atoms: C_7  and  C_8
REMARK    5  A    between atoms: C_8  and  C_10
REMARK    6  A    between atoms: C_10  and  C_11
REMARK    7  A    between atoms: C_11  and  C_12
REMARK    8  A    between atoms: C_12  and  C_13
REMARK    9  A    between atoms: C_13  and  C_14
REMARK   10  A    between atoms: C_22  and  O_23
REMARK                            x       y       z     vdW  Elec       q    Type
REMARK                         _______ _______ _______ _____ _____    ______ ____
ROOT
ATOM      1  C   UNL     1      51.448  28.092 196.797  0.00  0.00    +0.000 C 
ATOM      2  C   UNL     1      52.711  27.668 197.075  0.00  0.00    +0.000 C 
ENDROOT
BRANCH   1   5
ATOM      3  C   UNL     1      49.868  28.502 200.204  0.00  0.00    +0.000 A 
ATOM      4  C   UNL     1      50.801  28.457 199.196  0.00  0.00    +0.000 A 
ATOM      5  C   UNL     1      50.410  28.161 197.904  0.00  0.00    +0.000 A 
ATOM      6  C   UNL     1      49.087  27.931 197.617  0.00  0.00    +0.000 A 
ATOM      7  C   UNL     1      48.139  28.002 198.614  0.00  0.00    +0.000 A 
ATOM      8  C   UNL     1      48.499  28.299 199.932  0.00  0.00    +0.000 A 
BRANCH   3  10
ATOM      9  C   UNL     1      51.682  28.544 201.751  0.00  0.00    +0.000 C 
ATOM     10  O   UNL     1      50.311  28.771 201.453  0.00  0.00    +0.000 OA
ENDBRANCH   3  10
BRANCH   8  11
ATOM     11  O   UNL     1      47.523  28.392 200.959  0.00  0.00    +0.000 OA
ATOM     12  H   UNL     1      46.551  28.401 200.725  0.00  0.00    +0.000 HD
ENDBRANCH   8  11
ENDBRANCH   1   5
BRANCH   2  13
ATOM     13  C   UNL     1      53.750  27.598 195.967  0.00  0.00    +0.000 C 
ATOM     14  O   UNL     1      54.497  26.575 195.858  0.00  0.00    +0.000 OA
BRANCH  13  15
ATOM     15  C   UNL     1      53.897  28.753 194.989  0.00  0.00    +0.000 C 
BRANCH  15  16
ATOM     16  C   UNL     1      55.358  29.165 194.908  0.00  0.00    +0.000 C 
BRANCH  16  17
ATOM     17  C   UNL     1      55.807  29.708 196.256  0.00  0.00    +0.000 C 
BRANCH  17  18
ATOM     18  C   UNL     1      55.240  31.105 196.452  0.00  0.00    +0.000 C 
BRANCH  18  19
ATOM     19  C   UNL     1      54.919  31.320 197.922  0.00  0.00    +0.000 A 
ATOM     20  C   UNL     1      55.850  31.891 198.775  0.00  0.00    +0.000 A 
ATOM     21  C   UNL     1      55.545  31.731 200.147  0.00  0.00    +0.000 A 
ATOM     22  C   UNL     1      54.353  31.411 200.617  0.00  0.00    +0.000 A 
ATOM     23  C   UNL     1      53.454  30.917 199.711  0.00  0.00    +0.000 A 
ATOM     24  C   UNL     1      53.733  30.919 198.366  0.00  0.00    +0.000 A 
ENDBRANCH  18  19
ENDBRANCH  17  18
ENDBRANCH  16  17
ENDBRANCH  15  16
ENDBRANCH  13  15
ENDBRANCH   2  13
TORSDOF 9
ENDMDL
