MODEL 1
REMARK VINA RESULT:    -7.774      0.000      0.000
REMARK INTER + INTRA:         -10.082
REMARK INTER:                  -9.627
REMARK INTRA:                  -0.455
REMARK UNBOUND:                -0.036
REMARK  Name = 
REMARK  7 active torsions:
REMARK  status: ('A' for Active; 'I' for Inactive)
REMARK    1  A    between atoms: C_1  and  O_2
REMARK    2  A    between atoms: O_2  and  C_3
REMARK    3  A    between atoms: C_5  and  C_6
REMARK    4  A    between atoms: C_7  and  C_8
REMARK    5  A    between atoms: C_8  and  C_10
REMARK    6  A    between atoms: C_13  and  O_14
REMARK    7  A    between atoms: C_19  and  O_20
REMARK                            x       y       z     vdW  Elec       q    Type
REMARK                         _______ _______ _______ _____ _____    ______ ____
ROOT
ATOM      1  C   UNL     1      42.482  22.786 195.022  0.00  0.00    +0.000 C 
ATOM      2  C   UNL     1      43.034  21.846 194.206  0.00  0.00    +0.000 C 
ENDROOT
BRANCH   1   5
ATOM      3  C   UNL     1      40.012  24.469 192.708  0.00  0.00    +0.000 A 
ATOM      4  C   UNL     1      40.903  23.559 193.227  0.00  0.00    +0.000 A 
ATOM      5  C   UNL     1      41.481  23.783 194.462  0.00  0.00    +0.000 A 
ATOM      6  C   UNL     1      41.154  24.904 195.186  0.00  0.00    +0.000 A 
ATOM      7  C   UNL     1      40.240  25.807 194.690  0.00  0.00    +0.000 A 
ATOM      8  C   UNL     1      39.636  25.612 193.443  0.00  0.00    +0.000 A 
BRANCH   3  10
ATOM      9  C   UNL     1      39.825  22.956 190.904  0.00  0.00    +0.000 C 
ATOM     10  O   UNL     1      39.499  24.211 191.484  0.00  0.00    +0.000 OA
ENDBRANCH   3  10
BRANCH   8  11
ATOM     11  O   UNL     1      38.680  26.531 192.936  0.00  0.00    +0.000 OA
ATOM     12  H   UNL     1      38.373  27.296 193.503  0.00  0.00    +0.000 HD
ENDBRANCH   8  11
ENDBRANCH   1   5
BRANCH   2  13
ATOM     13  C   UNL     1      44.035  20.849 194.766  0.00  0.00    +0.000 C 
ATOM     14  O   UNL     1      43.625  19.813 195.377  0.00  0.00    +0.000 OA
BRANCH  13  15
ATOM     15  C   UNL     1      45.526  21.091 194.597  0.00  0.00    +0.000 A 
ATOM     16  C   UNL     1      45.964  22.381 194.798  0.00  0.00    +0.000 A 
ATOM     17  C   UNL     1      47.307  22.724 194.613  0.00  0.00    +0.000 A 
ATOM     18  C   UNL     1      48.196  21.698 194.230  0.00  0.00    +0.000 A 
ATOM     19  C   UNL     1      47.741  20.421 194.003  0.00  0.00    +0.000 A 
ATOM     20  C   UNL     1      46.407  20.117 194.195  0.00  0.00    +0.000 A 
BRANCH  18  21
ATOM     21  O   UNL     1      49.516  21.931 194.051  0.00  0.00    +0.000 OA
ATOM     22  H   UNL     1      49.965  22.673 194.549  0.00  0.00    +0.000 HD
ENDBRANCH  18  21
ENDBRANCH  13  15
ENDBRANCH   2  13
TORSDOF 6
ENDMDL
MODEL 2
REMARK VINA RESULT:    -7.660      9.225     13.388
REMARK INTER + INTRA:          -9.935
REMARK INTER:                  -9.837
REMARK INTRA:                  -0.098
REMARK UNBOUND:                -0.036
REMARK  Name = 
REMARK  7 active torsions:
REMARK  status: ('A' for Active; 'I' for Inactive)
REMARK    1  A    between atoms: C_1  and  O_2
REMARK    2  A    between atoms: O_2  and  C_3
REMARK    3  A    between atoms: C_5  and  C_6
REMARK    4  A    between atoms: C_7  and  C_8
REMARK    5  A    between atoms: C_8  and  C_10
REMARK    6  A    between atoms: C_13  and  O_14
REMARK    7  A    between atoms: C_19  and  O_20
REMARK                            x       y       z     vdW  Elec       q    Type
REMARK                         _______ _______ _______ _____ _____    ______ ____
ROOT
ATOM      1  C   UNL     1      52.561  28.031 197.988  0.00  0.00    +0.000 C 
ATOM      2  C   UNL     1      52.605  28.715 199.164  0.00  0.00    +0.000 C 
ENDROOT
BRANCH   1   5
ATOM      3  C   UNL     1      55.602  29.400 196.211  0.00  0.00    +0.000 A 
ATOM      4  C   UNL     1      54.653  29.160 197.176  0.00  0.00    +0.000 A 
ATOM      5  C   UNL     1      53.621  28.277 196.926  0.00  0.00    +0.000 A 
ATOM      6  C   UNL     1      53.548  27.620 195.722  0.00  0.00    +0.000 A 
ATOM      7  C   UNL     1      54.510  27.830 194.758  0.00  0.00    +0.000 A 
ATOM      8  C   UNL     1      55.569  28.717 194.978  0.00  0.00    +0.000 A 
BRANCH   3  10
ATOM      9  C   UNL     1      56.210  31.392 197.325  0.00  0.00    +0.000 C 
ATOM     10  O   UNL     1      56.575  30.295 196.501  0.00  0.00    +0.000 OA
ENDBRANCH   3  10
BRANCH   8  11
ATOM     11  O   UNL     1      56.572  28.923 193.995  0.00  0.00    +0.000 OA
ATOM     12  H   UNL     1      56.411  28.640 193.049  0.00  0.00    +0.000 HD
ENDBRANCH   8  11
ENDBRANCH   1   5
BRANCH   2  13
ATOM     13  C   UNL     1      51.546  28.469 200.225  0.00  0.00    +0.000 C 
ATOM     14  O   UNL     1      51.889  28.293 201.435  0.00  0.00    +0.000 OA
BRANCH  13  15
ATOM     15  C   UNL     1      50.076  28.430 199.838  0.00  0.00    +0.000 A 
ATOM     16  C   UNL     1      49.190  28.976 200.740  0.00  0.00    +0.000 A 
ATOM     17  C   UNL     1      47.811  28.942 200.508  0.00  0.00    +0.000 A 
ATOM     18  C   UNL     1      47.365  28.343 199.312  0.00  0.00    +0.000 A 
ATOM     19  C   UNL     1      48.258  27.774 198.434  0.00  0.00    +0.000 A 
ATOM     20  C   UNL     1      49.613  27.826 198.695  0.00  0.00    +0.000 A 
BRANCH  18  21
ATOM     21  O   UNL     1      46.052  28.285 198.992  0.00  0.00    +0.000 OA
ATOM     22  H   UNL     1      45.590  27.399 198.941  0.00  0.00    +0.000 HD
ENDBRANCH  18  21
ENDBRANCH  13  15
ENDBRANCH   2  13
TORSDOF 6
ENDMDL
MODEL 3
REMARK VINA RESULT:    -7.514      0.996      2.365
REMARK INTER + INTRA:          -9.746
REMARK INTER:                  -9.710
REMARK INTRA:                  -0.036
REMARK UNBOUND:                -0.036
REMARK  Name = 
REMARK  7 active torsions:
REMARK  status: ('A' for Active; 'I' for Inactive)
REMARK    1  A    between atoms: C_1  and  O_2
REMARK    2  A    between atoms: O_2  and  C_3
REMARK    3  A    between atoms: C_5  and  C_6
REMARK    4  A    between atoms: C_7  and  C_8
REMARK    5  A    between atoms: C_8  and  C_10
REMARK    6  A    between atoms: C_13  and  O_14
REMARK    7  A    between atoms: C_19  and  O_20
REMARK                            x       y       z     vdW  Elec       q    Type
REMARK                         _______ _______ _______ _____ _____    ______ ____
ROOT
ATOM      1  C   UNL     1      42.931  23.059 194.577  0.00  0.00    +0.000 C 
ATOM      2  C   UNL     1      42.814  21.716 194.383  0.00  0.00    +0.000 C 
ENDROOT
BRANCH   1   5
ATOM      3  C   UNL     1      39.945  25.365 194.789  0.00  0.00    +0.000 A 
ATOM      4  C   UNL     1      40.986  24.543 195.148  0.00  0.00    +0.000 A 
ATOM      5  C   UNL     1      41.794  23.985 194.177  0.00  0.00    +0.000 A 
ATOM      6  C   UNL     1      41.574  24.263 192.850  0.00  0.00    +0.000 A 
ATOM      7  C   UNL     1      40.552  25.110 192.479  0.00  0.00    +0.000 A 
ATOM      8  C   UNL     1      39.715  25.692 193.437  0.00  0.00    +0.000 A 
BRANCH   3  10
ATOM      9  C   UNL     1      39.519  25.496 197.108  0.00  0.00    +0.000 C 
ATOM     10  O   UNL     1      39.171  25.862 195.781  0.00  0.00    +0.000 OA
ENDBRANCH   3  10
BRANCH   8  11
ATOM     11  O   UNL     1      38.672  26.579 193.061  0.00  0.00    +0.000 OA
ATOM     12  H   UNL     1      37.904  26.739 193.681  0.00  0.00    +0.000 HD
ENDBRANCH   8  11
ENDBRANCH   1   5
BRANCH   2  13
ATOM     13  C   UNL     1      43.951  20.790 194.783  0.00  0.00    +0.000 C 
ATOM     14  O   UNL     1      43.695  19.660 195.304  0.00  0.00    +0.000 OA
BRANCH  13  15
ATOM     15  C   UNL     1      45.393  21.217 194.563  0.00  0.00    +0.000 A 
ATOM     16  C   UNL     1      46.271  20.231 194.170  0.00  0.00    +0.000 A 
ATOM     17  C   UNL     1      47.631  20.505 193.995  0.00  0.00    +0.000 A 
ATOM     18  C   UNL     1      48.065  21.827 194.219  0.00  0.00    +0.000 A 
ATOM     19  C   UNL     1      47.185  22.796 194.641  0.00  0.00    +0.000 A 
ATOM     20  C   UNL     1      45.848  22.491 194.804  0.00  0.00    +0.000 A 
BRANCH  18  21
ATOM     21  O   UNL     1      49.358  22.190 194.052  0.00  0.00    +0.000 OA
ATOM     22  H   UNL     1      49.986  21.587 193.560  0.00  0.00    +0.000 HD
ENDBRANCH  18  21
ENDBRANCH  13  15
ENDBRANCH   2  13
TORSDOF 6
ENDMDL
MODEL 4
REMARK VINA RESULT:    -7.468      2.421      3.199
REMARK INTER + INTRA:          -9.687
REMARK INTER:                  -9.168
REMARK INTRA:                  -0.519
REMARK UNBOUND:                -0.036
REMARK  Name = 
REMARK  7 active torsions:
REMARK  status: ('A' for Active; 'I' for Inactive)
REMARK    1  A    between atoms: C_1  and  O_2
REMARK    2  A    between atoms: O_2  and  C_3
REMARK    3  A    between atoms: C_5  and  C_6
REMARK    4  A    between atoms: C_7  and  C_8
REMARK    5  A    between atoms: C_8  and  C_10
REMARK    6  A    between atoms: C_13  and  O_14
REMARK    7  A    between atoms: C_19  and  O_20
REMARK                            x       y       z     vdW  Elec       q    Type
REMARK                         _______ _______ _______ _____ _____    ______ ____
ROOT
ATOM      1  C   UNL     1      42.425  20.715 192.787  0.00  0.00    +0.000 C 
ATOM      2  C   UNL     1      42.512  20.243 194.061  0.00  0.00    +0.000 C 
ENDROOT
BRANCH   1   5
ATOM      3  C   UNL     1      38.778  20.779 191.798  0.00  0.00    +0.000 A 
ATOM      4  C   UNL     1      39.985  20.360 192.307  0.00  0.00    +0.000 A 
ATOM      5  C   UNL     1      41.087  21.190 192.244  0.00  0.00    +0.000 A 
ATOM      6  C   UNL     1      40.980  22.443 191.692  0.00  0.00    +0.000 A 
ATOM      7  C   UNL     1      39.768  22.886 191.207  0.00  0.00    +0.000 A 
ATOM      8  C   UNL     1      38.632  22.071 191.254  0.00  0.00    +0.000 A 
BRANCH   3  10
ATOM      9  C   UNL     1      37.643  18.951 190.824  0.00  0.00    +0.000 C 
ATOM     10  O   UNL     1      37.740  19.914 191.864  0.00  0.00    +0.000 OA
ENDBRANCH   3  10
BRANCH   8  11
ATOM     11  O   UNL     1      37.378  22.530 190.771  0.00  0.00    +0.000 OA
ATOM     12  H   UNL     1      36.588  22.562 191.384  0.00  0.00    +0.000 HD
ENDBRANCH   8  11
ENDBRANCH   1   5
BRANCH   2  13
ATOM     13  C   UNL     1      43.850  19.768 194.604  0.00  0.00    +0.000 C 
ATOM     14  O   UNL     1      43.947  18.617 195.133  0.00  0.00    +0.000 OA
BRANCH  13  15
ATOM     15  C   UNL     1      45.070  20.670 194.518  0.00  0.00    +0.000 A 
ATOM     16  C   UNL     1      46.269  20.055 194.233  0.00  0.00    +0.000 A 
ATOM     17  C   UNL     1      47.461  20.784 194.186  0.00  0.00    +0.000 A 
ATOM     18  C   UNL     1      47.387  22.172 194.424  0.00  0.00    +0.000 A 
ATOM     19  C   UNL     1      46.189  22.770 194.737  0.00  0.00    +0.000 A 
ATOM     20  C   UNL     1      45.031  22.019 194.775  0.00  0.00    +0.000 A 
BRANCH  18  21
ATOM     21  O   UNL     1      48.484  22.962 194.377  0.00  0.00    +0.000 OA
ATOM     22  H   UNL     1      49.319  22.630 193.937  0.00  0.00    +0.000 HD
ENDBRANCH  18  21
ENDBRANCH  13  15
ENDBRANCH   2  13
TORSDOF 6
ENDMDL
MODEL 5
REMARK VINA RESULT:    -7.354      3.532      5.187
REMARK INTER + INTRA:          -9.539
REMARK INTER:                  -9.053
REMARK INTRA:                  -0.486
REMARK UNBOUND:                -0.036
REMARK  Name = 
REMARK  7 active torsions:
REMARK  status: ('A' for Active; 'I' for Inactive)
REMARK    1  A    between atoms: C_1  and  O_2
REMARK    2  A    between atoms: O_2  and  C_3
REMARK    3  A    between atoms: C_5  and  C_6
REMARK    4  A    between atoms: C_7  and  C_8
REMARK    5  A    between atoms: C_8  and  C_10
REMARK    6  A    between atoms: C_13  and  O_14
REMARK    7  A    between atoms: C_19  and  O_20
REMARK                            x       y       z     vdW  Elec       q    Type
REMARK                         _______ _______ _______ _____ _____    ______ ____
ROOT
ATOM      1  C   UNL     1      41.318  21.157 191.213  0.00  0.00    +0.000 C 
ATOM      2  C   UNL     1      41.709  21.337 192.504  0.00  0.00    +0.000 C 
ENDROOT
BRANCH   1   5
ATOM      3  C   UNL     1      37.976  19.396 191.106  0.00  0.00    +0.000 A 
ATOM      4  C   UNL     1      38.957  20.317 191.386  0.00  0.00    +0.000 A 
ATOM      5  C   UNL     1      40.232  20.147 190.882  0.00  0.00    +0.000 A 
ATOM      6  C   UNL     1      40.522  19.067 190.084  0.00  0.00    +0.000 A 
ATOM      7  C   UNL     1      39.540  18.153 189.771  0.00  0.00    +0.000 A 
ATOM      8  C   UNL     1      38.239  18.295 190.265  0.00  0.00    +0.000 A 
BRANCH   3  10
ATOM      9  C   UNL     1      36.533  19.069 192.946  0.00  0.00    +0.000 C 
ATOM     10  O   UNL     1      36.754  19.600 191.648  0.00  0.00    +0.000 OA
ENDBRANCH   3  10
BRANCH   8  11
ATOM     11  O   UNL     1      37.219  17.364 189.931  0.00  0.00    +0.000 OA
ATOM     12  H   UNL     1      36.963  16.649 190.582  0.00  0.00    +0.000 HD
ENDBRANCH   8  11
ENDBRANCH   1   5
BRANCH   2  13
ATOM     13  C   UNL     1      42.796  22.347 192.834  0.00  0.00    +0.000 C 
ATOM     14  O   UNL     1      42.576  23.589 192.679  0.00  0.00    +0.000 OA
BRANCH  13  15
ATOM     15  C   UNL     1      44.146  21.872 193.347  0.00  0.00    +0.000 A 
ATOM     16  C   UNL     1      44.148  20.705 194.077  0.00  0.00    +0.000 A 
ATOM     17  C   UNL     1      45.327  20.210 194.643  0.00  0.00    +0.000 A 
ATOM     18  C   UNL     1      46.513  20.941 194.424  0.00  0.00    +0.000 A 
ATOM     19  C   UNL     1      46.493  22.121 193.719  0.00  0.00    +0.000 A 
ATOM     20  C   UNL     1      45.310  22.581 193.174  0.00  0.00    +0.000 A 
BRANCH  18  21
ATOM     21  O   UNL     1      47.705  20.526 194.912  0.00  0.00    +0.000 OA
ATOM     22  H   UNL     1      48.044  20.894 195.778  0.00  0.00    +0.000 HD
ENDBRANCH  18  21
ENDBRANCH  13  15
ENDBRANCH   2  13
TORSDOF 6
ENDMDL
