MODEL 1
REMARK VINA RESULT:    -7.352      0.000      0.000
REMARK INTER + INTRA:          -9.103
REMARK INTER:                  -8.646
REMARK INTRA:                  -0.458
REMARK UNBOUND:                -0.462
REMARK  Name = 
REMARK  5 active torsions:
REMARK  status: ('A' for Active; 'I' for Inactive)
REMARK    1  A    between atoms: C_4  and  C_5
REMARK    2  A    between atoms: C_14  and  O_15
REMARK    3  A    between atoms: O_15  and  C_16
REMARK    4  A    between atoms: C_18  and  O_19
REMARK    5  A    between atoms: O_19  and  C_20
REMARK                            x       y       z     vdW  Elec       q    Type
REMARK                         _______ _______ _______ _____ _____    ______ ____
ROOT
ATOM      1  O   UNL     1      54.294  30.516 200.917  0.00  0.00    +0.000 OA
ATOM      2  C   UNL     1      53.596  29.966 200.062  0.00  0.00    +0.000 A 
ATOM      3  C   UNL     1      52.212  29.573 200.235  0.00  0.00    +0.000 A 
ATOM      4  C   UNL     1      51.527  28.999 199.141  0.00  0.00    +0.000 A 
ATOM      5  O   UNL     1      52.115  28.720 197.960  0.00  0.00    +0.000 OA
ATOM      6  C   UNL     1      53.432  29.082 197.738  0.00  0.00    +0.000 A 
ATOM      7  C   UNL     1      53.935  28.805 196.477  0.00  0.00    +0.000 A 
ATOM      8  C   UNL     1      55.239  29.174 196.207  0.00  0.00    +0.000 A 
ATOM      9  C   UNL     1      56.019  29.799 197.170  0.00  0.00    +0.000 A 
ATOM     10  C   UNL     1      55.496  30.057 198.419  0.00  0.00    +0.000 A 
ATOM     11  C   UNL     1      54.179  29.694 198.724  0.00  0.00    +0.000 A 
ENDROOT
BRANCH   4  12
ATOM     12  C   UNL     1      50.050  28.679 199.304  0.00  0.00    +0.000 A 
ATOM     13  C   UNL     1      49.377  28.056 198.266  0.00  0.00    +0.000 A 
ATOM     14  C   UNL     1      47.969  28.071 198.404  0.00  0.00    +0.000 A 
ATOM     15  C   UNL     1      47.330  28.308 199.536  0.00  0.00    +0.000 A 
ATOM     16  C   UNL     1      48.067  28.861 200.546  0.00  0.00    +0.000 A 
ATOM     17  C   UNL     1      49.430  28.999 200.433  0.00  0.00    +0.000 A 
ENDBRANCH   4  12
BRANCH   8  18
ATOM     18  O   UNL     1      55.790  28.910 194.925  0.00  0.00    +0.000 OA
ATOM     19  C   UNL     1      55.847  27.578 194.437  0.00  0.00    +0.000 C 
ENDBRANCH   8  18
BRANCH  10  20
ATOM     20  O   UNL     1      56.298  30.696 199.402  0.00  0.00    +0.000 OA
ATOM     21  C   UNL     1      56.917  31.941 199.114  0.00  0.00    +0.000 C 
ENDBRANCH  10  20
TORSDOF 3
ENDMDL
MODEL 2
REMARK VINA RESULT:    -7.310     10.476     14.470
REMARK INTER + INTRA:          -9.054
REMARK INTER:                  -8.704
REMARK INTRA:                  -0.350
REMARK UNBOUND:                -0.462
REMARK  Name = 
REMARK  5 active torsions:
REMARK  status: ('A' for Active; 'I' for Inactive)
REMARK    1  A    between atoms: C_4  and  C_5
REMARK    2  A    between atoms: C_14  and  O_15
REMARK    3  A    between atoms: O_15  and  C_16
REMARK    4  A    between atoms: C_18  and  O_19
REMARK    5  A    between atoms: O_19  and  C_20
REMARK                            x       y       z     vdW  Elec       q    Type
REMARK                         _______ _______ _______ _____ _____    ______ ____
ROOT
ATOM      1  O   UNL     1      41.777  22.050 190.829  0.00  0.00    +0.000 OA
ATOM      2  C   UNL     1      42.300  22.379 191.896  0.00  0.00    +0.000 A 
ATOM      3  C   UNL     1      43.625  21.991 192.336  0.00  0.00    +0.000 A 
ATOM      4  C   UNL     1      44.106  22.494 193.565  0.00  0.00    +0.000 A 
ATOM      5  O   UNL     1      43.366  23.256 194.397  0.00  0.00    +0.000 OA
ATOM      6  C   UNL     1      42.099  23.663 194.021  0.00  0.00    +0.000 A 
ATOM      7  C   UNL     1      41.435  24.489 194.915  0.00  0.00    +0.000 A 
ATOM      8  C   UNL     1      40.176  24.937 194.566  0.00  0.00    +0.000 A 
ATOM      9  C   UNL     1      39.594  24.570 193.361  0.00  0.00    +0.000 A 
ATOM     10  C   UNL     1      40.273  23.742 192.493  0.00  0.00    +0.000 A 
ATOM     11  C   UNL     1      41.550  23.269 192.818  0.00  0.00    +0.000 A 
ENDROOT
BRANCH   4  12
ATOM     12  C   UNL     1      45.531  22.159 193.971  0.00  0.00    +0.000 A 
ATOM     13  C   UNL     1      46.345  23.163 194.471  0.00  0.00    +0.000 A 
ATOM     14  C   UNL     1      47.714  22.812 194.539  0.00  0.00    +0.000 A 
ATOM     15  C   UNL     1      48.173  21.575 194.495  0.00  0.00    +0.000 A 
ATOM     16  C   UNL     1      47.300  20.618 194.057  0.00  0.00    +0.000 A 
ATOM     17  C   UNL     1      45.975  20.914 193.843  0.00  0.00    +0.000 A 
ENDBRANCH   4  12
BRANCH   8  18
ATOM     18  O   UNL     1      39.465  25.787 195.454  0.00  0.00    +0.000 OA
ATOM     19  C   UNL     1      39.482  25.530 196.851  0.00  0.00    +0.000 C 
ENDBRANCH   8  18
BRANCH  10  20
ATOM     20  O   UNL     1      39.674  23.367 191.261  0.00  0.00    +0.000 OA
ATOM     21  C   UNL     1      38.575  22.467 191.251  0.00  0.00    +0.000 C 
ENDBRANCH  10  20
TORSDOF 3
ENDMDL
MODEL 3
REMARK VINA RESULT:    -7.212      1.235      3.258
REMARK INTER + INTRA:          -8.938
REMARK INTER:                  -8.633
REMARK INTRA:                  -0.306
REMARK UNBOUND:                -0.462
REMARK  Name = 
REMARK  5 active torsions:
REMARK  status: ('A' for Active; 'I' for Inactive)
REMARK    1  A    between atoms: C_4  and  C_5
REMARK    2  A    between atoms: C_14  and  O_15
REMARK    3  A    between atoms: O_15  and  C_16
REMARK    4  A    between atoms: C_18  and  O_19
REMARK    5  A    between atoms: O_19  and  C_20
REMARK                            x       y       z     vdW  Elec       q    Type
REMARK                         _______ _______ _______ _____ _____    ______ ____
ROOT
ATOM      1  O   UNL     1      53.479  27.296 195.714  0.00  0.00    +0.000 OA
ATOM      2  C   UNL     1      52.984  28.012 196.588  0.00  0.00    +0.000 A 
ATOM      3  C   UNL     1      51.640  27.887 197.115  0.00  0.00    +0.000 A 
ATOM      4  C   UNL     1      51.235  28.752 198.155  0.00  0.00    +0.000 A 
ATOM      5  O   UNL     1      52.007  29.749 198.636  0.00  0.00    +0.000 OA
ATOM      6  C   UNL     1      53.302  29.907 198.175  0.00  0.00    +0.000 A 
ATOM      7  C   UNL     1      54.038  30.922 198.765  0.00  0.00    +0.000 A 
ATOM      8  C   UNL     1      55.344  31.097 198.350  0.00  0.00    +0.000 A 
ATOM      9  C   UNL     1      55.898  30.284 197.371  0.00  0.00    +0.000 A 
ATOM     10  C   UNL     1      55.142  29.286 196.795  0.00  0.00    +0.000 A 
ATOM     11  C   UNL     1      53.815  29.084 197.193  0.00  0.00    +0.000 A 
ENDROOT
BRANCH   4  12
ATOM     12  C   UNL     1      49.859  28.549 198.766  0.00  0.00    +0.000 A 
ATOM     13  C   UNL     1      48.904  27.838 198.057  0.00  0.00    +0.000 A 
ATOM     14  C   UNL     1      47.594  27.960 198.577  0.00  0.00    +0.000 A 
ATOM     15  C   UNL     1      47.308  28.383 199.795  0.00  0.00    +0.000 A 
ATOM     16  C   UNL     1      48.314  29.018 200.470  0.00  0.00    +0.000 A 
ATOM     17  C   UNL     1      49.591  29.054 199.965  0.00  0.00    +0.000 A 
ENDBRANCH   4  12
BRANCH   8  18
ATOM     18  O   UNL     1      56.132  32.125 198.933  0.00  0.00    +0.000 OA
ATOM     19  C   UNL     1      57.032  31.818 199.988  0.00  0.00    +0.000 C 
ENDBRANCH   8  18
BRANCH  10  20
ATOM     20  O   UNL     1      55.713  28.457 195.793  0.00  0.00    +0.000 OA
ATOM     21  C   UNL     1      55.915  28.965 194.483  0.00  0.00    +0.000 C 
ENDBRANCH  10  20
TORSDOF 3
ENDMDL
MODEL 4
REMARK VINA RESULT:    -7.164     10.944     14.623
REMARK INTER + INTRA:          -8.882
REMARK INTER:                  -8.547
REMARK INTRA:                  -0.335
REMARK UNBOUND:                -0.462
REMARK  Name = 
REMARK  5 active torsions:
REMARK  status: ('A' for Active; 'I' for Inactive)
REMARK    1  A    between atoms: C_4  and  C_5
REMARK    2  A    between atoms: C_14  and  O_15
REMARK    3  A    between atoms: O_15  and  C_16
REMARK    4  A    between atoms: C_18  and  O_19
REMARK    5  A    between atoms: O_19  and  C_20
REMARK                            x       y       z     vdW  Elec       q    Type
REMARK                         _______ _______ _______ _____ _____    ______ ____
ROOT
ATOM      1  O   UNL     1      41.658  25.337 195.015  0.00  0.00    +0.000 OA
ATOM      2  C   UNL     1      42.106  24.327 194.466  0.00  0.00    +0.000 A 
ATOM      3  C   UNL     1      43.467  23.843 194.581  0.00  0.00    +0.000 A 
ATOM      4  C   UNL     1      43.815  22.638 193.932  0.00  0.00    +0.000 A 
ATOM      5  O   UNL     1      42.968  21.948 193.141  0.00  0.00    +0.000 OA
ATOM      6  C   UNL     1      41.655  22.361 193.005  0.00  0.00    +0.000 A 
ATOM      7  C   UNL     1      40.844  21.559 192.216  0.00  0.00    +0.000 A 
ATOM      8  C   UNL     1      39.519  21.924 192.075  0.00  0.00    +0.000 A 
ATOM      9  C   UNL     1      39.018  23.057 192.700  0.00  0.00    +0.000 A 
ATOM     10  C   UNL     1      39.848  23.840 193.474  0.00  0.00    +0.000 A 
ATOM     11  C   UNL     1      41.196  23.499 193.635  0.00  0.00    +0.000 A 
ENDROOT
BRANCH   4  12
ATOM     12  C   UNL     1      45.218  22.090 194.136  0.00  0.00    +0.000 A 
ATOM     13  C   UNL     1      46.269  22.974 194.318  0.00  0.00    +0.000 A 
ATOM     14  C   UNL     1      47.546  22.377 194.206  0.00  0.00    +0.000 A 
ATOM     15  C   UNL     1      47.777  21.079 194.286  0.00  0.00    +0.000 A 
ATOM     16  C   UNL     1      46.688  20.260 194.167  0.00  0.00    +0.000 A 
ATOM     17  C   UNL     1      45.415  20.776 194.139  0.00  0.00    +0.000 A 
ENDBRANCH   4  12
BRANCH   8  18
ATOM     18  O   UNL     1      38.656  21.127 191.278  0.00  0.00    +0.000 OA
ATOM     19  C   UNL     1      38.346  19.799 191.675  0.00  0.00    +0.000 C 
ENDBRANCH   8  18
BRANCH  10  20
ATOM     20  O   UNL     1      39.332  25.000 194.111  0.00  0.00    +0.000 OA
ATOM     21  C   UNL     1      39.004  26.147 193.340  0.00  0.00    +0.000 C 
ENDBRANCH  10  20
TORSDOF 3
ENDMDL
MODEL 5
REMARK VINA RESULT:    -6.992      2.212      6.498
REMARK INTER + INTRA:          -8.680
REMARK INTER:                  -8.219
REMARK INTRA:                  -0.462
REMARK UNBOUND:                -0.462
REMARK  Name = 
REMARK  5 active torsions:
REMARK  status: ('A' for Active; 'I' for Inactive)
REMARK    1  A    between atoms: C_4  and  C_5
REMARK    2  A    between atoms: C_14  and  O_15
REMARK    3  A    between atoms: O_15  and  C_16
REMARK    4  A    between atoms: C_18  and  O_19
REMARK    5  A    between atoms: O_19  and  C_20
REMARK                            x       y       z     vdW  Elec       q    Type
REMARK                         _______ _______ _______ _____ _____    ______ ____
ROOT
ATOM      1  O   UNL     1      56.385  29.978 196.516  0.00  0.00    +0.000 OA
ATOM      2  C   UNL     1      55.726  30.518 197.407  0.00  0.00    +0.000 A 
ATOM      3  C   UNL     1      56.264  31.365 198.453  0.00  0.00    +0.000 A 
ATOM      4  C   UNL     1      55.372  31.955 199.375  0.00  0.00    +0.000 A 
ATOM      5  O   UNL     1      54.045  31.710 199.386  0.00  0.00    +0.000 OA
ATOM      6  C   UNL     1      53.478  30.916 198.405  0.00  0.00    +0.000 A 
ATOM      7  C   UNL     1      52.102  30.765 198.465  0.00  0.00    +0.000 A 
ATOM      8  C   UNL     1      51.494  30.000 197.488  0.00  0.00    +0.000 A 
ATOM      9  C   UNL     1      52.239  29.400 196.482  0.00  0.00    +0.000 A 
ATOM     10  C   UNL     1      53.608  29.561 196.449  0.00  0.00    +0.000 A 
ATOM     11  C   UNL     1      54.254  30.329 197.426  0.00  0.00    +0.000 A 
ENDROOT
BRANCH   4  12
ATOM     12  C   UNL     1      55.935  32.916 200.408  0.00  0.00    +0.000 A 
ATOM     13  C   UNL     1      57.309  33.027 200.549  0.00  0.00    +0.000 A 
ATOM     14  C   UNL     1      57.712  33.716 201.716  0.00  0.00    +0.000 A 
ATOM     15  C   UNL     1      56.927  34.501 202.432  0.00  0.00    +0.000 A 
ATOM     16  C   UNL     1      55.584  34.393 202.198  0.00  0.00    +0.000 A 
ATOM     17  C   UNL     1      55.106  33.635 201.157  0.00  0.00    +0.000 A 
ENDBRANCH   4  12
BRANCH   8  18
ATOM     18  O   UNL     1      50.085  29.824 197.513  0.00  0.00    +0.000 OA
ATOM     19  C   UNL     1      49.473  29.145 198.601  0.00  0.00    +0.000 C 
ENDBRANCH   8  18
BRANCH  10  20
ATOM     20  O   UNL     1      54.366  28.945 195.420  0.00  0.00    +0.000 OA
ATOM     21  C   UNL     1      54.101  27.600 195.050  0.00  0.00    +0.000 C 
ENDBRANCH  10  20
TORSDOF 3
ENDMDL
