MODEL 1
REMARK VINA RESULT:    -7.112      0.000      0.000
REMARK INTER + INTRA:           8.813
REMARK INTER:                  -7.727
REMARK INTRA:                  16.540
REMARK UNBOUND:                16.549
REMARK  Name = 
REMARK  2 active torsions:
REMARK  status: ('A' for Active; 'I' for Inactive)
REMARK    1  A    between atoms: C_4  and  C_7
REMARK    2  A    between atoms: C_12  and  O_18
REMARK                            x       y       z     vdW  Elec       q    Type
REMARK                         _______ _______ _______ _____ _____    ______ ____
ROOT
ATOM      1  C   UNL     1      53.444  29.440 195.945  0.00  0.00    +0.000 A 
ATOM      2  C   UNL     1      54.719  29.586 196.598  0.00  0.00    +0.000 A 
ATOM      3  C   UNL     1      54.804  29.526 198.034  0.00  0.00    +0.000 A 
ATOM      4  O   UNL     1      55.930  29.654 198.610  0.00  0.00    +0.000 OA
ATOM      5  C   UNL     1      53.547  29.310 198.861  0.00  0.00    +0.000 A 
ATOM      6  C   UNL     1      53.333  30.086 199.988  0.00  0.00    +0.000 A 
ATOM      7  C   UNL     1      52.301  29.605 200.828  0.00  0.00    +0.000 A 
ATOM      8  C   UNL     1      51.374  28.741 200.456  0.00  0.00    +0.000 A 
ATOM      9  C   UNL     1      51.613  28.054 199.298  0.00  0.00    +0.000 A 
ATOM     10  C   UNL     1      52.676  28.378 198.490  0.00  0.00    +0.000 A 
ATOM     11  O   UNL     1      53.365  29.497 194.603  0.00  0.00    +0.000 OA
ENDROOT
BRANCH   1  15
ATOM     12  C   UNL     1      49.785  28.857 198.071  0.00  0.00    +0.000 A 
ATOM     13  C   UNL     1      50.366  27.772 197.436  0.00  0.00    +0.000 A 
ATOM     14  C   UNL     1      51.672  28.021 196.953  0.00  0.00    +0.000 A 
ATOM     15  C   UNL     1      52.187  29.223 196.772  0.00  0.00    +0.000 A 
ATOM     16  C   UNL     1      51.529  30.263 197.369  0.00  0.00    +0.000 A 
ATOM     17  C   UNL     1      50.310  30.073 197.974  0.00  0.00    +0.000 A 
ENDBRANCH   1  15
BRANCH   6  18
ATOM     18  O   UNL     1      54.082  31.258 200.275  0.00  0.00    +0.000 OA
ATOM     19  H   UNL     1      53.989  32.065 199.691  0.00  0.00    +0.000 HD
ENDBRANCH   6  18
TORSDOF 2
ENDMDL
MODEL 2
REMARK VINA RESULT:    -6.987     11.195     13.810
REMARK INTER + INTRA:           8.949
REMARK INTER:                  -7.572
REMARK INTRA:                  16.521
REMARK UNBOUND:                16.549
REMARK  Name = 
REMARK  2 active torsions:
REMARK  status: ('A' for Active; 'I' for Inactive)
REMARK    1  A    between atoms: C_4  and  C_7
REMARK    2  A    between atoms: C_12  and  O_18
REMARK                            x       y       z     vdW  Elec       q    Type
REMARK                         _______ _______ _______ _____ _____    ______ ____
ROOT
ATOM      1  C   UNL     1      41.497  24.536 192.793  0.00  0.00    +0.000 A 
ATOM      2  C   UNL     1      40.245  23.828 192.860  0.00  0.00    +0.000 A 
ATOM      3  C   UNL     1      40.221  22.442 193.249  0.00  0.00    +0.000 A 
ATOM      4  O   UNL     1      39.116  21.818 193.309  0.00  0.00    +0.000 OA
ATOM      5  C   UNL     1      41.518  21.726 193.589  0.00  0.00    +0.000 A 
ATOM      6  C   UNL     1      41.748  20.459 193.079  0.00  0.00    +0.000 A 
ATOM      7  C   UNL     1      42.832  19.784 193.690  0.00  0.00    +0.000 A 
ATOM      8  C   UNL     1      43.776  20.372 194.401  0.00  0.00    +0.000 A 
ATOM      9  C   UNL     1      43.517  21.649 194.817  0.00  0.00    +0.000 A 
ATOM     10  C   UNL     1      42.410  22.327 194.368  0.00  0.00    +0.000 A 
ATOM     11  O   UNL     1      41.518  25.831 192.429  0.00  0.00    +0.000 OA
ENDROOT
BRANCH   1  15
ATOM     12  C   UNL     1      45.259  22.715 193.668  0.00  0.00    +0.000 A 
ATOM     13  C   UNL     1      44.701  23.570 194.604  0.00  0.00    +0.000 A 
ATOM     14  C   UNL     1      43.366  23.942 194.316  0.00  0.00    +0.000 A 
ATOM     15  C   UNL     1      42.794  23.820 193.132  0.00  0.00    +0.000 A 
ATOM     16  C   UNL     1      43.431  23.016 192.228  0.00  0.00    +0.000 A 
ATOM     17  C   UNL     1      44.680  22.508 192.491  0.00  0.00    +0.000 A 
ENDBRANCH   1  15
BRANCH   6  18
ATOM     18  O   UNL     1      40.967  19.887 192.040  0.00  0.00    +0.000 OA
ATOM     19  H   UNL     1      39.968  19.937 192.081  0.00  0.00    +0.000 HD
ENDBRANCH   6  18
TORSDOF 2
ENDMDL
MODEL 3
REMARK VINA RESULT:    -6.804     11.977     14.398
REMARK INTER + INTRA:           9.148
REMARK INTER:                  -7.385
REMARK INTRA:                  16.533
REMARK UNBOUND:                16.549
REMARK  Name = 
REMARK  2 active torsions:
REMARK  status: ('A' for Active; 'I' for Inactive)
REMARK    1  A    between atoms: C_4  and  C_7
REMARK    2  A    between atoms: C_12  and  O_18
REMARK                            x       y       z     vdW  Elec       q    Type
REMARK                         _______ _______ _______ _____ _____    ______ ____
ROOT
ATOM      1  C   UNL     1      43.816  22.726 193.141  0.00  0.00    +0.000 A 
ATOM      2  C   UNL     1      43.436  23.936 193.823  0.00  0.00    +0.000 A 
ATOM      3  C   UNL     1      42.042  24.248 194.013  0.00  0.00    +0.000 A 
ATOM      4  O   UNL     1      41.708  25.316 194.616  0.00  0.00    +0.000 OA
ATOM      5  C   UNL     1      40.974  23.301 193.493  0.00  0.00    +0.000 A 
ATOM      6  C   UNL     1      39.882  23.816 192.815  0.00  0.00    +0.000 A 
ATOM      7  C   UNL     1      38.826  22.889 192.640  0.00  0.00    +0.000 A 
ATOM      8  C   UNL     1      38.951  21.581 192.758  0.00  0.00    +0.000 A 
ATOM      9  C   UNL     1      40.085  21.132 193.378  0.00  0.00    +0.000 A 
ATOM     10  C   UNL     1      41.104  21.995 193.698  0.00  0.00    +0.000 A 
ATOM     11  O   UNL     1      45.117  22.435 192.963  0.00  0.00    +0.000 OA
ENDROOT
BRANCH   1  15
ATOM     12  C   UNL     1      40.984  19.940 191.573  0.00  0.00    +0.000 A 
ATOM     13  C   UNL     1      41.630  19.634 192.759  0.00  0.00    +0.000 A 
ATOM     14  C   UNL     1      42.374  20.710 193.300  0.00  0.00    +0.000 A 
ATOM     15  C   UNL     1      42.747  21.779 192.621  0.00  0.00    +0.000 A 
ATOM     16  C   UNL     1      42.120  21.988 191.424  0.00  0.00    +0.000 A 
ATOM     17  C   UNL     1      41.277  21.042 190.893  0.00  0.00    +0.000 A 
ENDBRANCH   1  15
BRANCH   6  18
ATOM     18  O   UNL     1      39.825  25.153 192.338  0.00  0.00    +0.000 OA
ATOM     19  H   UNL     1      39.496  25.883 192.937  0.00  0.00    +0.000 HD
ENDBRANCH   6  18
TORSDOF 2
ENDMDL
MODEL 4
REMARK VINA RESULT:    -6.786      1.954      4.017
REMARK INTER + INTRA:           9.167
REMARK INTER:                  -7.406
REMARK INTRA:                  16.574
REMARK UNBOUND:                16.549
REMARK  Name = 
REMARK  2 active torsions:
REMARK  status: ('A' for Active; 'I' for Inactive)
REMARK    1  A    between atoms: C_4  and  C_7
REMARK    2  A    between atoms: C_12  and  O_18
REMARK                            x       y       z     vdW  Elec       q    Type
REMARK                         _______ _______ _______ _____ _____    ______ ____
ROOT
ATOM      1  C   UNL     1      51.390  29.320 197.675  0.00  0.00    +0.000 A 
ATOM      2  C   UNL     1      51.795  28.412 196.632  0.00  0.00    +0.000 A 
ATOM      3  C   UNL     1      53.191  28.262 196.311  0.00  0.00    +0.000 A 
ATOM      4  O   UNL     1      53.548  27.461 195.391  0.00  0.00    +0.000 OA
ATOM      5  C   UNL     1      54.237  29.061 197.072  0.00  0.00    +0.000 A 
ATOM      6  C   UNL     1      55.256  29.685 196.373  0.00  0.00    +0.000 A 
ATOM      7  C   UNL     1      56.316  30.142 197.192  0.00  0.00    +0.000 A 
ATOM      8  C   UNL     1      56.234  30.313 198.498  0.00  0.00    +0.000 A 
ATOM      9  C   UNL     1      55.167  29.728 199.122  0.00  0.00    +0.000 A 
ATOM     10  C   UNL     1      54.156  29.146 198.395  0.00  0.00    +0.000 A 
ATOM     11  O   UNL     1      50.086  29.460 197.975  0.00  0.00    +0.000 OA
ENDROOT
BRANCH   1  15
ATOM     12  C   UNL     1      54.152  31.680 199.921  0.00  0.00    +0.000 A 
ATOM     13  C   UNL     1      53.624  30.539 200.504  0.00  0.00    +0.000 A 
ATOM     14  C   UNL     1      52.900  29.720 199.607  0.00  0.00    +0.000 A 
ATOM     15  C   UNL     1      52.436  30.118 198.436  0.00  0.00    +0.000 A 
ATOM     16  C   UNL     1      52.946  31.288 197.946  0.00  0.00    +0.000 A 
ATOM     17  C   UNL     1      53.766  32.079 198.715  0.00  0.00    +0.000 A 
ENDBRANCH   1  15
BRANCH   6  18
ATOM     18  O   UNL     1      55.240  29.852 194.963  0.00  0.00    +0.000 OA
ATOM     19  H   UNL     1      56.080  29.724 194.435  0.00  0.00    +0.000 HD
ENDBRANCH   6  18
TORSDOF 2
ENDMDL
MODEL 5
REMARK VINA RESULT:    -6.743     11.280     13.413
REMARK INTER + INTRA:           9.215
REMARK INTER:                  -7.334
REMARK INTRA:                  16.549
REMARK UNBOUND:                16.549
REMARK  Name = 
REMARK  2 active torsions:
REMARK  status: ('A' for Active; 'I' for Inactive)
REMARK    1  A    between atoms: C_4  and  C_7
REMARK    2  A    between atoms: C_12  and  O_18
REMARK                            x       y       z     vdW  Elec       q    Type
REMARK                         _______ _______ _______ _____ _____    ______ ____
ROOT
ATOM      1  C   UNL     1      45.359  21.686 194.077  0.00  0.00    +0.000 A 
ATOM      2  C   UNL     1      45.667  22.443 192.891  0.00  0.00    +0.000 A 
ATOM      3  C   UNL     1      44.606  22.897 192.030  0.00  0.00    +0.000 A 
ATOM      4  O   UNL     1      44.879  23.566 190.984  0.00  0.00    +0.000 OA
ATOM      5  C   UNL     1      43.160  22.578 192.373  0.00  0.00    +0.000 A 
ATOM      6  C   UNL     1      42.310  22.126 191.378  0.00  0.00    +0.000 A 
ATOM      7  C   UNL     1      40.942  22.144 191.741  0.00  0.00    +0.000 A 
ATOM      8  C   UNL     1      40.497  22.221 192.981  0.00  0.00    +0.000 A 
ATOM      9  C   UNL     1      41.403  22.608 193.929  0.00  0.00    +0.000 A 
ATOM     10  C   UNL     1      42.735  22.739 193.621  0.00  0.00    +0.000 A 
ATOM     11  O   UNL     1      46.350  21.261 194.880  0.00  0.00    +0.000 OA
ENDROOT
BRANCH   1  15
ATOM     12  C   UNL     1      41.375  20.649 195.214  0.00  0.00    +0.000 A 
ATOM     13  C   UNL     1      42.013  21.675 195.890  0.00  0.00    +0.000 A 
ATOM     14  C   UNL     1      43.231  22.082 195.297  0.00  0.00    +0.000 A 
ATOM     15  C   UNL     1      43.913  21.367 194.420  0.00  0.00    +0.000 A 
ATOM     16  C   UNL     1      43.247  20.325 193.837  0.00  0.00    +0.000 A 
ATOM     17  C   UNL     1      42.000  19.950 194.274  0.00  0.00    +0.000 A 
ENDBRANCH   1  15
BRANCH   6  18
ATOM     18  O   UNL     1      42.768  21.685 190.108  0.00  0.00    +0.000 OA
ATOM     19  H   UNL     1      42.112  21.508 189.374  0.00  0.00    +0.000 HD
ENDBRANCH   6  18
TORSDOF 2
ENDMDL
