MODEL 1
REMARK VINA RESULT:    -7.333      0.000      0.000
REMARK INTER + INTRA:          -8.570
REMARK INTER:                  -8.219
REMARK INTRA:                  -0.352
REMARK UNBOUND:                -0.379
REMARK  Name = 
REMARK  3 active torsions:
REMARK  status: ('A' for Active; 'I' for Inactive)
REMARK    1  A    between atoms: C_1  and  O_2
REMARK    2  A    between atoms: O_2  and  C_3
REMARK    3  A    between atoms: C_12  and  C_14
REMARK                            x       y       z     vdW  Elec       q    Type
REMARK                         _______ _______ _______ _____ _____    ______ ____
ROOT
ATOM      1  C   UNL     1      50.093  28.436 200.301  0.00  0.00    +0.000 A 
ATOM      2  C   UNL     1      50.550  28.805 201.548  0.00  0.00    +0.000 A 
ATOM      3  C   UNL     1      51.901  29.057 201.746  0.00  0.00    +0.000 A 
ATOM      4  C   UNL     1      52.804  28.946 200.706  0.00  0.00    +0.000 A 
ATOM      5  C   UNL     1      52.318  28.580 199.462  0.00  0.00    +0.000 A 
ATOM      6  C   UNL     1      50.984  28.314 199.228  0.00  0.00    +0.000 A 
ATOM      7  C   UNL     1      50.511  27.920 197.876  0.00  0.00    +0.000 A 
ATOM      8  O   UNL     1      49.312  27.691 197.707  0.00  0.00    +0.000 OA
ATOM      9  C   UNL     1      51.531  27.867 196.847  0.00  0.00    +0.000 A 
ATOM     10  C   UNL     1      52.857  28.206 197.187  0.00  0.00    +0.000 A 
ATOM     11  O   UNL     1      53.251  28.505 198.443  0.00  0.00    +0.000 OA
ENDROOT
BRANCH  10  12
ATOM     12  C   UNL     1      53.899  28.239 196.079  0.00  0.00    +0.000 A 
ATOM     13  C   UNL     1      54.403  27.047 195.586  0.00  0.00    +0.000 A 
ATOM     14  C   UNL     1      55.558  27.202 194.783  0.00  0.00    +0.000 A 
ATOM     15  C   UNL     1      55.940  28.340 194.232  0.00  0.00    +0.000 A 
ATOM     16  C   UNL     1      55.354  29.476 194.717  0.00  0.00    +0.000 A 
ATOM     17  C   UNL     1      54.308  29.410 195.604  0.00  0.00    +0.000 A 
ENDBRANCH  10  12
BRANCH   1  19
ATOM     18  C   UNL     1      47.776  29.211 200.582  0.00  0.00    +0.000 C 
ATOM     19  O   UNL     1      48.702  28.266 200.069  0.00  0.00    +0.000 OA
ENDBRANCH   1  19
TORSDOF 2
ENDMDL
MODEL 2
REMARK VINA RESULT:    -7.321      1.840      6.428
REMARK INTER + INTRA:          -8.556
REMARK INTER:                  -8.238
REMARK INTRA:                  -0.318
REMARK UNBOUND:                -0.379
REMARK  Name = 
REMARK  3 active torsions:
REMARK  status: ('A' for Active; 'I' for Inactive)
REMARK    1  A    between atoms: C_1  and  O_2
REMARK    2  A    between atoms: O_2  and  C_3
REMARK    3  A    between atoms: C_12  and  C_14
REMARK                            x       y       z     vdW  Elec       q    Type
REMARK                         _______ _______ _______ _____ _____    ______ ____
ROOT
ATOM      1  C   UNL     1      55.417  29.556 197.019  0.00  0.00    +0.000 A 
ATOM      2  C   UNL     1      55.766  29.042 195.789  0.00  0.00    +0.000 A 
ATOM      3  C   UNL     1      54.864  28.257 195.083  0.00  0.00    +0.000 A 
ATOM      4  C   UNL     1      53.611  27.980 195.595  0.00  0.00    +0.000 A 
ATOM      5  C   UNL     1      53.283  28.514 196.830  0.00  0.00    +0.000 A 
ATOM      6  C   UNL     1      54.155  29.292 197.565  0.00  0.00    +0.000 A 
ATOM      7  C   UNL     1      53.758  29.838 198.888  0.00  0.00    +0.000 A 
ATOM      8  O   UNL     1      54.565  30.530 199.514  0.00  0.00    +0.000 OA
ATOM      9  C   UNL     1      52.411  29.520 199.319  0.00  0.00    +0.000 A 
ATOM     10  C   UNL     1      51.587  28.757 198.464  0.00  0.00    +0.000 A 
ATOM     11  O   UNL     1      52.010  28.235 197.294  0.00  0.00    +0.000 OA
ENDROOT
BRANCH  10  12
ATOM     12  C   UNL     1      50.147  28.511 198.884  0.00  0.00    +0.000 A 
ATOM     13  C   UNL     1      49.309  27.791 198.048  0.00  0.00    +0.000 A 
ATOM     14  C   UNL     1      47.940  27.877 198.395  0.00  0.00    +0.000 A 
ATOM     15  C   UNL     1      47.490  28.274 199.571  0.00  0.00    +0.000 A 
ATOM     16  C   UNL     1      48.384  28.920 200.379  0.00  0.00    +0.000 A 
ATOM     17  C   UNL     1      49.715  28.991 200.045  0.00  0.00    +0.000 A 
ENDBRANCH  10  12
BRANCH   1  19
ATOM     18  C   UNL     1      56.558  31.729 197.186  0.00  0.00    +0.000 C 
ATOM     19  O   UNL     1      56.298  30.434 197.706  0.00  0.00    +0.000 OA
ENDBRANCH   1  19
TORSDOF 2
ENDMDL
MODEL 3
REMARK VINA RESULT:    -7.288      1.991      6.275
REMARK INTER + INTRA:          -8.520
REMARK INTER:                  -8.257
REMARK INTRA:                  -0.263
REMARK UNBOUND:                -0.379
REMARK  Name = 
REMARK  3 active torsions:
REMARK  status: ('A' for Active; 'I' for Inactive)
REMARK    1  A    between atoms: C_1  and  O_2
REMARK    2  A    between atoms: O_2  and  C_3
REMARK    3  A    between atoms: C_12  and  C_14
REMARK                            x       y       z     vdW  Elec       q    Type
REMARK                         _______ _______ _______ _____ _____    ______ ____
ROOT
ATOM      1  C   UNL     1      54.811  29.779 196.472  0.00  0.00    +0.000 A 
ATOM      2  C   UNL     1      55.369  31.012 196.731  0.00  0.00    +0.000 A 
ATOM      3  C   UNL     1      54.664  31.953 197.469  0.00  0.00    +0.000 A 
ATOM      4  C   UNL     1      53.401  31.673 197.956  0.00  0.00    +0.000 A 
ATOM      5  C   UNL     1      52.866  30.424 197.687  0.00  0.00    +0.000 A 
ATOM      6  C   UNL     1      53.532  29.466 196.951  0.00  0.00    +0.000 A 
ATOM      7  C   UNL     1      52.913  28.142 196.686  0.00  0.00    +0.000 A 
ATOM      8  O   UNL     1      53.541  27.312 196.024  0.00  0.00    +0.000 OA
ATOM      9  C   UNL     1      51.602  27.935 197.269  0.00  0.00    +0.000 A 
ATOM     10  C   UNL     1      51.034  28.967 198.046  0.00  0.00    +0.000 A 
ATOM     11  O   UNL     1      51.610  30.175 198.214  0.00  0.00    +0.000 OA
ENDROOT
BRANCH  10  12
ATOM     12  C   UNL     1      49.703  28.703 198.732  0.00  0.00    +0.000 A 
ATOM     13  C   UNL     1      48.698  28.050 198.035  0.00  0.00    +0.000 A 
ATOM     14  C   UNL     1      47.430  28.122 198.658  0.00  0.00    +0.000 A 
ATOM     15  C   UNL     1      47.235  28.437 199.925  0.00  0.00    +0.000 A 
ATOM     16  C   UNL     1      48.288  29.016 200.577  0.00  0.00    +0.000 A 
ATOM     17  C   UNL     1      49.525  29.102 199.986  0.00  0.00    +0.000 A 
ENDBRANCH  10  12
BRANCH   1  19
ATOM     18  C   UNL     1      55.861  28.927 194.418  0.00  0.00    +0.000 C 
ATOM     19  O   UNL     1      55.560  28.779 195.798  0.00  0.00    +0.000 OA
ENDBRANCH   1  19
TORSDOF 2
ENDMDL
MODEL 4
REMARK VINA RESULT:    -7.231     10.463     12.279
REMARK INTER + INTRA:          -8.456
REMARK INTER:                  -8.124
REMARK INTRA:                  -0.332
REMARK UNBOUND:                -0.379
REMARK  Name = 
REMARK  3 active torsions:
REMARK  status: ('A' for Active; 'I' for Inactive)
REMARK    1  A    between atoms: C_1  and  O_2
REMARK    2  A    between atoms: O_2  and  C_3
REMARK    3  A    between atoms: C_12  and  C_14
REMARK                            x       y       z     vdW  Elec       q    Type
REMARK                         _______ _______ _______ _____ _____    ______ ____
ROOT
ATOM      1  C   UNL     1      39.901  23.166 193.226  0.00  0.00    +0.000 A 
ATOM      2  C   UNL     1      39.478  24.448 193.503  0.00  0.00    +0.000 A 
ATOM      3  C   UNL     1      40.360  25.367 194.055  0.00  0.00    +0.000 A 
ATOM      4  C   UNL     1      41.668  25.018 194.332  0.00  0.00    +0.000 A 
ATOM      5  C   UNL     1      42.070  23.726 194.038  0.00  0.00    +0.000 A 
ATOM      6  C   UNL     1      41.220  22.782 193.497  0.00  0.00    +0.000 A 
ATOM      7  C   UNL     1      41.698  21.407 193.204  0.00  0.00    +0.000 A 
ATOM      8  O   UNL     1      40.909  20.592 192.719  0.00  0.00    +0.000 OA
ATOM      9  C   UNL     1      43.094  21.152 193.498  0.00  0.00    +0.000 A 
ATOM     10  C   UNL     1      43.884  22.205 194.004  0.00  0.00    +0.000 A 
ATOM     11  O   UNL     1      43.394  23.425 194.308  0.00  0.00    +0.000 OA
ENDROOT
BRANCH  10  12
ATOM     12  C   UNL     1      45.369  21.953 194.218  0.00  0.00    +0.000 A 
ATOM     13  C   UNL     1      46.194  23.010 194.566  0.00  0.00    +0.000 A 
ATOM     14  C   UNL     1      47.574  22.721 194.450  0.00  0.00    +0.000 A 
ATOM     15  C   UNL     1      48.081  21.504 194.382  0.00  0.00    +0.000 A 
ATOM     16  C   UNL     1      47.203  20.494 194.103  0.00  0.00    +0.000 A 
ATOM     17  C   UNL     1      45.849  20.724 194.069  0.00  0.00    +0.000 A 
ENDBRANCH  10  12
BRANCH   1  19
ATOM     18  C   UNL     1      38.622  22.483 191.239  0.00  0.00    +0.000 C 
ATOM     19  O   UNL     1      39.033  22.248 192.577  0.00  0.00    +0.000 OA
ENDBRANCH   1  19
TORSDOF 2
ENDMDL
MODEL 5
REMARK VINA RESULT:    -6.851     12.965     14.831
REMARK INTER + INTRA:          -8.032
REMARK INTER:                  -7.652
REMARK INTRA:                  -0.379
REMARK UNBOUND:                -0.379
REMARK  Name = 
REMARK  3 active torsions:
REMARK  status: ('A' for Active; 'I' for Inactive)
REMARK    1  A    between atoms: C_1  and  O_2
REMARK    2  A    between atoms: O_2  and  C_3
REMARK    3  A    between atoms: C_12  and  C_14
REMARK                            x       y       z     vdW  Elec       q    Type
REMARK                         _______ _______ _______ _____ _____    ______ ____
ROOT
ATOM      1  C   UNL     1      38.409  20.864 191.225  0.00  0.00    +0.000 A 
ATOM      2  C   UNL     1      37.849  19.616 191.390  0.00  0.00    +0.000 A 
ATOM      3  C   UNL     1      38.589  18.595 191.972  0.00  0.00    +0.000 A 
ATOM      4  C   UNL     1      39.887  18.809 192.394  0.00  0.00    +0.000 A 
ATOM      5  C   UNL     1      40.423  20.074 192.223  0.00  0.00    +0.000 A 
ATOM      6  C   UNL     1      39.722  21.112 191.642  0.00  0.00    +0.000 A 
ATOM      7  C   UNL     1      40.344  22.451 191.476  0.00  0.00    +0.000 A 
ATOM      8  O   UNL     1      39.685  23.353 190.953  0.00  0.00    +0.000 OA
ATOM      9  C   UNL     1      41.695  22.582 191.983  0.00  0.00    +0.000 A 
ATOM     10  C   UNL     1      42.299  21.468 192.603  0.00  0.00    +0.000 A 
ATOM     11  O   UNL     1      41.716  20.253 192.682  0.00  0.00    +0.000 OA
ENDROOT
BRANCH  10  12
ATOM     12  C   UNL     1      43.679  21.645 193.216  0.00  0.00    +0.000 A 
ATOM     13  C   UNL     1      44.508  22.650 192.744  0.00  0.00    +0.000 A 
ATOM     14  C   UNL     1      45.851  22.534 193.174  0.00  0.00    +0.000 A 
ATOM     15  C   UNL     1      46.250  21.797 194.195  0.00  0.00    +0.000 A 
ATOM     16  C   UNL     1      45.359  20.868 194.659  0.00  0.00    +0.000 A 
ATOM     17  C   UNL     1      44.067  20.834 194.194  0.00  0.00    +0.000 A 
ENDBRANCH  10  12
BRANCH   1  19
ATOM     18  C   UNL     1      36.431  21.671 190.006  0.00  0.00    +0.000 C 
ATOM     19  O   UNL     1      37.631  21.938 190.716  0.00  0.00    +0.000 OA
ENDBRANCH   1  19
TORSDOF 2
ENDMDL
