MODEL 1
REMARK VINA RESULT:    -7.360      0.000      0.000
REMARK INTER + INTRA:          13.058
REMARK INTER:                  -8.200
REMARK INTRA:                  21.258
REMARK UNBOUND:                21.278
REMARK  Name = 
REMARK  3 active torsions:
REMARK  status: ('A' for Active; 'I' for Inactive)
REMARK    1  A    between atoms: C_1  and  O_2
REMARK    2  A    between atoms: O_2  and  C_3
REMARK    3  A    between atoms: C_6  and  C_7
REMARK                            x       y       z     vdW  Elec       q    Type
REMARK                         _______ _______ _______ _____ _____    ______ ____
ROOT
ATOM      1  C   UNL     1      53.751  29.476 195.860  0.00  0.00    +0.000 A 
ATOM      2  C   UNL     1      55.022  29.593 196.529  0.00  0.00    +0.000 A 
ATOM      3  C   UNL     1      55.087  29.524 197.966  0.00  0.00    +0.000 A 
ATOM      4  O   UNL     1      56.208  29.627 198.557  0.00  0.00    +0.000 OA
ATOM      5  C   UNL     1      53.816  29.330 198.777  0.00  0.00    +0.000 A 
ATOM      6  C   UNL     1      53.477  30.165 199.828  0.00  0.00    +0.000 A 
ATOM      7  C   UNL     1      52.328  29.751 200.542  0.00  0.00    +0.000 A 
ATOM      8  C   UNL     1      51.433  28.892 200.088  0.00  0.00    +0.000 A 
ATOM      9  C   UNL     1      51.803  28.143 199.005  0.00  0.00    +0.000 A 
ATOM     10  C   UNL     1      52.975  28.402 198.334  0.00  0.00    +0.000 A 
ATOM     11  O   UNL     1      53.689  29.541 194.518  0.00  0.00    +0.000 OA
ENDROOT
BRANCH   1  15
ATOM     12  C   UNL     1      50.055  28.953 197.936  0.00  0.00    +0.000 A 
ATOM     13  C   UNL     1      50.638  27.853 197.329  0.00  0.00    +0.000 A 
ATOM     14  C   UNL     1      51.954  28.086 196.864  0.00  0.00    +0.000 A 
ATOM     15  C   UNL     1      52.480  29.281 196.671  0.00  0.00    +0.000 A 
ATOM     16  C   UNL     1      51.819  30.335 197.239  0.00  0.00    +0.000 A 
ATOM     17  C   UNL     1      50.590  30.164 197.828  0.00  0.00    +0.000 A 
BRANCH  12  19
ATOM     18  C   UNL     1      48.003  27.747 198.553  0.00  0.00    +0.000 C 
ATOM     19  O   UNL     1      48.952  28.770 198.812  0.00  0.00    +0.000 OA
ENDBRANCH  12  19
ENDBRANCH   1  15
TORSDOF 2
ENDMDL
MODEL 2
REMARK VINA RESULT:    -7.246      9.470     13.149
REMARK INTER + INTRA:          13.185
REMARK INTER:                  -8.104
REMARK INTRA:                  21.289
REMARK UNBOUND:                21.278
REMARK  Name = 
REMARK  3 active torsions:
REMARK  status: ('A' for Active; 'I' for Inactive)
REMARK    1  A    between atoms: C_1  and  O_2
REMARK    2  A    between atoms: O_2  and  C_3
REMARK    3  A    between atoms: C_6  and  C_7
REMARK                            x       y       z     vdW  Elec       q    Type
REMARK                         _______ _______ _______ _____ _____    ______ ____
ROOT
ATOM      1  C   UNL     1      41.351  24.642 192.714  0.00  0.00    +0.000 A 
ATOM      2  C   UNL     1      40.089  23.950 192.793  0.00  0.00    +0.000 A 
ATOM      3  C   UNL     1      40.050  22.573 193.211  0.00  0.00    +0.000 A 
ATOM      4  O   UNL     1      38.937  21.962 193.281  0.00  0.00    +0.000 OA
ATOM      5  C   UNL     1      41.338  21.848 193.566  0.00  0.00    +0.000 A 
ATOM      6  C   UNL     1      41.678  20.630 193.003  0.00  0.00    +0.000 A 
ATOM      7  C   UNL     1      42.847  20.051 193.551  0.00  0.00    +0.000 A 
ATOM      8  C   UNL     1      43.751  20.711 194.253  0.00  0.00    +0.000 A 
ATOM      9  C   UNL     1      43.377  21.938 194.725  0.00  0.00    +0.000 A 
ATOM     10  C   UNL     1      42.189  22.513 194.338  0.00  0.00    +0.000 A 
ATOM     11  O   UNL     1      41.389  25.929 192.324  0.00  0.00    +0.000 OA
ENDROOT
BRANCH   1  15
ATOM     12  C   UNL     1      45.090  22.799 193.638  0.00  0.00    +0.000 A 
ATOM     13  C   UNL     1      44.520  23.649 194.571  0.00  0.00    +0.000 A 
ATOM     14  C   UNL     1      43.192  24.028 194.263  0.00  0.00    +0.000 A 
ATOM     15  C   UNL     1      42.639  23.918 193.070  0.00  0.00    +0.000 A 
ATOM     16  C   UNL     1      43.287  23.117 192.171  0.00  0.00    +0.000 A 
ATOM     17  C   UNL     1      44.530  22.602 192.451  0.00  0.00    +0.000 A 
BRANCH  12  19
ATOM     18  C   UNL     1      47.366  22.621 194.554  0.00  0.00    +0.000 C 
ATOM     19  O   UNL     1      46.212  22.006 194.003  0.00  0.00    +0.000 OA
ENDBRANCH  12  19
ENDBRANCH   1  15
TORSDOF 2
ENDMDL
MODEL 3
REMARK VINA RESULT:    -7.091      1.562      2.934
REMARK INTER + INTRA:          13.358
REMARK INTER:                  -7.910
REMARK INTRA:                  21.268
REMARK UNBOUND:                21.278
REMARK  Name = 
REMARK  3 active torsions:
REMARK  status: ('A' for Active; 'I' for Inactive)
REMARK    1  A    between atoms: C_1  and  O_2
REMARK    2  A    between atoms: O_2  and  C_3
REMARK    3  A    between atoms: C_6  and  C_7
REMARK                            x       y       z     vdW  Elec       q    Type
REMARK                         _______ _______ _______ _____ _____    ______ ____
ROOT
ATOM      1  C   UNL     1      54.140  31.880 198.849  0.00  0.00    +0.000 A 
ATOM      2  C   UNL     1      55.366  31.575 198.157  0.00  0.00    +0.000 A 
ATOM      3  C   UNL     1      55.426  30.450 197.260  0.00  0.00    +0.000 A 
ATOM      4  O   UNL     1      56.508  30.180 196.650  0.00  0.00    +0.000 OA
ATOM      5  C   UNL     1      54.195  29.585 197.044  0.00  0.00    +0.000 A 
ATOM      6  C   UNL     1      54.230  28.207 197.179  0.00  0.00    +0.000 A 
ATOM      7  C   UNL     1      53.023  27.565 196.814  0.00  0.00    +0.000 A 
ATOM      8  C   UNL     1      51.855  28.171 196.702  0.00  0.00    +0.000 A 
ATOM      9  C   UNL     1      51.883  29.537 196.641  0.00  0.00    +0.000 A 
ATOM     10  C   UNL     1      53.050  30.231 196.857  0.00  0.00    +0.000 A 
ATOM     11  O   UNL     1      54.084  32.931 199.687  0.00  0.00    +0.000 OA
ENDROOT
BRANCH   1  15
ATOM     12  C   UNL     1      50.571  29.577 198.408  0.00  0.00    +0.000 A 
ATOM     13  C   UNL     1      50.681  30.771 197.715  0.00  0.00    +0.000 A 
ATOM     14  C   UNL     1      51.976  31.340 197.756  0.00  0.00    +0.000 A 
ATOM     15  C   UNL     1      52.909  31.015 198.632  0.00  0.00    +0.000 A 
ATOM     16  C   UNL     1      52.709  29.859 199.334  0.00  0.00    +0.000 A 
ATOM     17  C   UNL     1      51.520  29.176 199.245  0.00  0.00    +0.000 A 
BRANCH  12  19
ATOM     18  C   UNL     1      48.778  28.074 199.168  0.00  0.00    +0.000 C 
ATOM     19  O   UNL     1      49.501  28.690 198.113  0.00  0.00    +0.000 OA
ENDBRANCH  12  19
ENDBRANCH   1  15
TORSDOF 2
ENDMDL
MODEL 4
REMARK VINA RESULT:    -7.004     10.142     13.643
REMARK INTER + INTRA:          13.455
REMARK INTER:                  -7.844
REMARK INTRA:                  21.299
REMARK UNBOUND:                21.278
REMARK  Name = 
REMARK  3 active torsions:
REMARK  status: ('A' for Active; 'I' for Inactive)
REMARK    1  A    between atoms: C_1  and  O_2
REMARK    2  A    between atoms: O_2  and  C_3
REMARK    3  A    between atoms: C_6  and  C_7
REMARK                            x       y       z     vdW  Elec       q    Type
REMARK                         _______ _______ _______ _____ _____    ______ ____
ROOT
ATOM      1  C   UNL     1      41.018  21.117 191.282  0.00  0.00    +0.000 A 
ATOM      2  C   UNL     1      39.772  21.788 191.554  0.00  0.00    +0.000 A 
ATOM      3  C   UNL     1      39.741  22.906 192.461  0.00  0.00    +0.000 A 
ATOM      4  O   UNL     1      38.643  23.499 192.702  0.00  0.00    +0.000 OA
ATOM      5  C   UNL     1      41.021  23.377 193.132  0.00  0.00    +0.000 A 
ATOM      6  C   UNL     1      41.116  23.546 194.503  0.00  0.00    +0.000 A 
ATOM      7  C   UNL     1      42.341  24.112 194.928  0.00  0.00    +0.000 A 
ATOM      8  C   UNL     1      43.441  24.153 194.196  0.00  0.00    +0.000 A 
ATOM      9  C   UNL     1      43.291  23.910 192.860  0.00  0.00    +0.000 A 
ATOM     10  C   UNL     1      42.089  23.481 192.349  0.00  0.00    +0.000 A 
ATOM     11  O   UNL     1      41.048  20.073 190.434  0.00  0.00    +0.000 OA
ENDROOT
BRANCH   1  15
ATOM     12  C   UNL     1      44.727  22.255 193.065  0.00  0.00    +0.000 A 
ATOM     13  C   UNL     1      44.460  22.664 191.769  0.00  0.00    +0.000 A 
ATOM     14  C   UNL     1      43.128  22.424 191.356  0.00  0.00    +0.000 A 
ATOM     15  C   UNL     1      42.298  21.588 191.952  0.00  0.00    +0.000 A 
ATOM     16  C   UNL     1      42.652  21.168 193.204  0.00  0.00    +0.000 A 
ATOM     17  C   UNL     1      43.885  21.472 193.728  0.00  0.00    +0.000 A 
BRANCH  12  19
ATOM     18  C   UNL     1      46.675  21.952 194.536  0.00  0.00    +0.000 C 
ATOM     19  O   UNL     1      45.843  22.798 193.757  0.00  0.00    +0.000 OA
ENDBRANCH  12  19
ENDBRANCH   1  15
TORSDOF 2
ENDMDL
MODEL 5
REMARK VINA RESULT:    -6.944     10.406     12.283
REMARK INTER + INTRA:          13.522
REMARK INTER:                  -7.756
REMARK INTRA:                  21.278
REMARK UNBOUND:                21.278
REMARK  Name = 
REMARK  3 active torsions:
REMARK  status: ('A' for Active; 'I' for Inactive)
REMARK    1  A    between atoms: C_1  and  O_2
REMARK    2  A    between atoms: O_2  and  C_3
REMARK    3  A    between atoms: C_6  and  C_7
REMARK                            x       y       z     vdW  Elec       q    Type
REMARK                         _______ _______ _______ _____ _____    ______ ____
ROOT
ATOM      1  C   UNL     1      46.132  21.888 194.125  0.00  0.00    +0.000 A 
ATOM      2  C   UNL     1      46.032  20.530 194.596  0.00  0.00    +0.000 A 
ATOM      3  C   UNL     1      44.744  19.889 194.672  0.00  0.00    +0.000 A 
ATOM      4  O   UNL     1      44.655  18.691 195.088  0.00  0.00    +0.000 OA
ATOM      5  C   UNL     1      43.493  20.644 194.257  0.00  0.00    +0.000 A 
ATOM      6  C   UNL     1      42.383  20.740 195.078  0.00  0.00    +0.000 A 
ATOM      7  C   UNL     1      41.271  21.370 194.470  0.00  0.00    +0.000 A 
ATOM      8  C   UNL     1      41.338  22.124 193.387  0.00  0.00    +0.000 A 
ATOM      9  C   UNL     1      42.489  22.035 192.654  0.00  0.00    +0.000 A 
ATOM     10  C   UNL     1      43.572  21.329 193.122  0.00  0.00    +0.000 A 
ATOM     11  O   UNL     1      47.334  22.488 194.054  0.00  0.00    +0.000 OA
ENDROOT
BRANCH   1  15
ATOM     12  C   UNL     1      42.751  24.204 192.924  0.00  0.00    +0.000 A 
ATOM     13  C   UNL     1      43.534  23.614 191.945  0.00  0.00    +0.000 A 
ATOM     14  C   UNL     1      44.487  22.698 192.450  0.00  0.00    +0.000 A 
ATOM     15  C   UNL     1      44.881  22.643 193.708  0.00  0.00    +0.000 A 
ATOM     16  C   UNL     1      44.102  23.304 194.618  0.00  0.00    +0.000 A 
ATOM     17  C   UNL     1      43.071  24.114 194.209  0.00  0.00    +0.000 A 
BRANCH  12  19
ATOM     18  C   UNL     1      40.931  25.789 193.397  0.00  0.00    +0.000 C 
ATOM     19  O   UNL     1      41.507  24.790 192.569  0.00  0.00    +0.000 OA
ENDBRANCH  12  19
ENDBRANCH   1  15
TORSDOF 2
ENDMDL
