MODEL 1
REMARK VINA RESULT:    -6.118      0.000      0.000
REMARK INTER + INTRA:          -9.450
REMARK INTER:                  -8.712
REMARK INTRA:                  -0.738
REMARK UNBOUND:                -0.828
REMARK  Name = 
REMARK  11 active torsions:
REMARK  status: ('A' for Active; 'I' for Inactive)
REMARK    1  A    between atoms: C_1  and  O_2
REMARK    2  A    between atoms: O_2  and  C_3
REMARK    3  A    between atoms: C_6  and  C_7
REMARK    4  A    between atoms: C_8  and  C_9
REMARK    5  A    between atoms: C_9  and  C_11
REMARK    6  A    between atoms: C_13  and  O_14
REMARK    7  A    between atoms: O_14  and  C_15
REMARK    8  A    between atoms: C_16  and  O_17
REMARK    9  A    between atoms: O_17  and  C_18
REMARK   10  A    between atoms: C_19  and  O_20
REMARK   11  A    between atoms: O_20  and  C_21
REMARK                            x       y       z     vdW  Elec       q    Type
REMARK                         _______ _______ _______ _____ _____    ______ ____
ROOT
ATOM      1  C   UNL     1      55.400  31.429 197.882  0.00  0.00    +0.000 C 
ATOM      2  O   UNL     1      55.775  32.139 196.897  0.00  0.00    +0.000 OA
ENDROOT
BRANCH   1   3
ATOM      3  C   UNL     1      56.281  31.314 199.116  0.00  0.00    +0.000 A 
ATOM      4  C   UNL     1      56.857  30.096 199.434  0.00  0.00    +0.000 A 
ATOM      5  C   UNL     1      57.408  30.044 200.736  0.00  0.00    +0.000 A 
ATOM      6  C   UNL     1      57.696  31.104 201.470  0.00  0.00    +0.000 A 
ATOM      7  C   UNL     1      57.151  32.291 201.065  0.00  0.00    +0.000 A 
ATOM      8  C   UNL     1      56.487  32.390 199.866  0.00  0.00    +0.000 A 
BRANCH   5   9
ATOM      9  O   UNL     1      57.668  28.764 201.293  0.00  0.00    +0.000 OA
ATOM     10  C   UNL     1      56.590  27.935 201.702  0.00  0.00    +0.000 C 
ENDBRANCH   5   9
BRANCH   6  11
ATOM     11  O   UNL     1      58.527  31.015 202.618  0.00  0.00    +0.000 OA
ATOM     12  C   UNL     1      57.959  30.714 203.884  0.00  0.00    +0.000 C 
ENDBRANCH   6  11
BRANCH   7  13
ATOM     13  O   UNL     1      57.275  33.436 201.895  0.00  0.00    +0.000 OA
ATOM     14  C   UNL     1      58.235  34.437 201.586  0.00  0.00    +0.000 C 
ENDBRANCH   7  13
ENDBRANCH   1   3
BRANCH   1  16
ATOM     15  C   UNL     1      53.271  30.652 198.926  0.00  0.00    +0.000 C 
ATOM     16  C   UNL     1      54.072  30.694 197.827  0.00  0.00    +0.000 C 
BRANCH  15  20
ATOM     17  C   UNL     1      49.442  28.758 198.906  0.00  0.00    +0.000 A 
ATOM     18  C   UNL     1      49.693  29.761 197.984  0.00  0.00    +0.000 A 
ATOM     19  C   UNL     1      51.048  30.164 197.930  0.00  0.00    +0.000 A 
ATOM     20  C   UNL     1      51.942  29.916 198.871  0.00  0.00    +0.000 A 
ATOM     21  C   UNL     1      51.607  28.964 199.792  0.00  0.00    +0.000 A 
ATOM     22  C   UNL     1      50.342  28.427 199.826  0.00  0.00    +0.000 A 
BRANCH  17  24
ATOM     23  C   UNL     1      48.040  26.936 198.033  0.00  0.00    +0.000 C 
ATOM     24  O   UNL     1      48.199  28.072 198.869  0.00  0.00    +0.000 OA
ENDBRANCH  17  24
ENDBRANCH  15  20
ENDBRANCH   1  16
TORSDOF 7
ENDMDL
MODEL 2
REMARK VINA RESULT:    -6.010      0.604      2.791
REMARK INTER + INTRA:          -9.297
REMARK INTER:                  -8.595
REMARK INTRA:                  -0.702
REMARK UNBOUND:                -0.828
REMARK  Name = 
REMARK  11 active torsions:
REMARK  status: ('A' for Active; 'I' for Inactive)
REMARK    1  A    between atoms: C_1  and  O_2
REMARK    2  A    between atoms: O_2  and  C_3
REMARK    3  A    between atoms: C_6  and  C_7
REMARK    4  A    between atoms: C_8  and  C_9
REMARK    5  A    between atoms: C_9  and  C_11
REMARK    6  A    between atoms: C_13  and  O_14
REMARK    7  A    between atoms: O_14  and  C_15
REMARK    8  A    between atoms: C_16  and  O_17
REMARK    9  A    between atoms: O_17  and  C_18
REMARK   10  A    between atoms: C_19  and  O_20
REMARK   11  A    between atoms: O_20  and  C_21
REMARK                            x       y       z     vdW  Elec       q    Type
REMARK                         _______ _______ _______ _____ _____    ______ ____
ROOT
ATOM      1  C   UNL     1      55.813  31.593 198.105  0.00  0.00    +0.000 C 
ATOM      2  O   UNL     1      56.447  32.066 197.111  0.00  0.00    +0.000 OA
ENDROOT
BRANCH   1   3
ATOM      3  C   UNL     1      56.489  31.498 199.463  0.00  0.00    +0.000 A 
ATOM      4  C   UNL     1      56.510  32.605 200.295  0.00  0.00    +0.000 A 
ATOM      5  C   UNL     1      57.402  32.486 201.387  0.00  0.00    +0.000 A 
ATOM      6  C   UNL     1      57.906  31.345 201.821  0.00  0.00    +0.000 A 
ATOM      7  C   UNL     1      57.794  30.271 200.981  0.00  0.00    +0.000 A 
ATOM      8  C   UNL     1      57.046  30.351 199.830  0.00  0.00    +0.000 A 
BRANCH   5   9
ATOM      9  O   UNL     1      57.782  33.675 202.063  0.00  0.00    +0.000 OA
ATOM     10  C   UNL     1      57.893  34.895 201.345  0.00  0.00    +0.000 C 
ENDBRANCH   5   9
BRANCH   6  11
ATOM     11  O   UNL     1      58.529  31.238 203.092  0.00  0.00    +0.000 OA
ATOM     12  C   UNL     1      57.800  30.735 204.202  0.00  0.00    +0.000 C 
ENDBRANCH   6  11
BRANCH   7  13
ATOM     13  O   UNL     1      58.459  29.059 201.303  0.00  0.00    +0.000 OA
ATOM     14  C   UNL     1      57.727  27.973 201.854  0.00  0.00    +0.000 C 
ENDBRANCH   7  13
ENDBRANCH   1   3
BRANCH   1  16
ATOM     15  C   UNL     1      53.695  30.626 199.004  0.00  0.00    +0.000 C 
ATOM     16  C   UNL     1      54.378  31.121 197.937  0.00  0.00    +0.000 C 
BRANCH  15  20
ATOM     17  C   UNL     1      49.743  29.124 198.392  0.00  0.00    +0.000 A 
ATOM     18  C   UNL     1      50.528  28.550 199.379  0.00  0.00    +0.000 A 
ATOM     19  C   UNL     1      51.723  29.257 199.645  0.00  0.00    +0.000 A 
ATOM     20  C   UNL     1      52.260  30.153 198.836  0.00  0.00    +0.000 A 
ATOM     21  C   UNL     1      51.456  30.632 197.840  0.00  0.00    +0.000 A 
ATOM     22  C   UNL     1      50.220  30.079 197.602  0.00  0.00    +0.000 A 
BRANCH  17  24
ATOM     23  C   UNL     1      48.091  27.303 198.347  0.00  0.00    +0.000 C 
ATOM     24  O   UNL     1      48.405  28.682 198.221  0.00  0.00    +0.000 OA
ENDBRANCH  17  24
ENDBRANCH  15  20
ENDBRANCH   1  16
TORSDOF 7
ENDMDL
MODEL 3
REMARK VINA RESULT:    -5.885     12.646     19.398
REMARK INTER + INTRA:          -9.122
REMARK INTER:                  -8.440
REMARK INTRA:                  -0.681
REMARK UNBOUND:                -0.828
REMARK  Name = 
REMARK  11 active torsions:
REMARK  status: ('A' for Active; 'I' for Inactive)
REMARK    1  A    between atoms: C_1  and  O_2
REMARK    2  A    between atoms: O_2  and  C_3
REMARK    3  A    between atoms: C_6  and  C_7
REMARK    4  A    between atoms: C_8  and  C_9
REMARK    5  A    between atoms: C_9  and  C_11
REMARK    6  A    between atoms: C_13  and  O_14
REMARK    7  A    between atoms: O_14  and  C_15
REMARK    8  A    between atoms: C_16  and  O_17
REMARK    9  A    between atoms: O_17  and  C_18
REMARK   10  A    between atoms: C_19  and  O_20
REMARK   11  A    between atoms: O_20  and  C_21
REMARK                            x       y       z     vdW  Elec       q    Type
REMARK                         _______ _______ _______ _____ _____    ______ ____
ROOT
ATOM      1  C   UNL     1      40.145  22.588 191.730  0.00  0.00    +0.000 C 
ATOM      2  O   UNL     1      39.755  23.606 191.076  0.00  0.00    +0.000 OA
ENDROOT
BRANCH   1   3
ATOM      3  C   UNL     1      39.149  21.505 192.115  0.00  0.00    +0.000 A 
ATOM      4  C   UNL     1      38.963  21.193 193.451  0.00  0.00    +0.000 A 
ATOM      5  C   UNL     1      38.241  19.995 193.665  0.00  0.00    +0.000 A 
ATOM      6  C   UNL     1      37.495  19.398 192.753  0.00  0.00    +0.000 A 
ATOM      7  C   UNL     1      37.677  19.798 191.459  0.00  0.00    +0.000 A 
ATOM      8  C   UNL     1      38.471  20.880 191.160  0.00  0.00    +0.000 A 
BRANCH   5   9
ATOM      9  O   UNL     1      38.326  19.392 194.948  0.00  0.00    +0.000 OA
ATOM     10  C   UNL     1      39.574  18.918 195.428  0.00  0.00    +0.000 C 
ENDBRANCH   5   9
BRANCH   6  11
ATOM     11  O   UNL     1      36.552  18.394 193.099  0.00  0.00    +0.000 OA
ATOM     12  C   UNL     1      36.944  17.029 193.123  0.00  0.00    +0.000 C 
ENDBRANCH   6  11
BRANCH   7  13
ATOM     13  O   UNL     1      37.039  19.087 190.410  0.00  0.00    +0.000 OA
ATOM     14  C   UNL     1      37.784  18.181 189.609  0.00  0.00    +0.000 C 
ENDBRANCH   7  13
ENDBRANCH   1   3
BRANCH   1  16
ATOM     15  C   UNL     1      42.190  23.403 192.903  0.00  0.00    +0.000 C 
ATOM     16  C   UNL     1      41.605  22.453 192.126  0.00  0.00    +0.000 C 
BRANCH  15  20
ATOM     17  C   UNL     1      46.239  22.824 194.134  0.00  0.00    +0.000 A 
ATOM     18  C   UNL     1      45.788  22.169 192.999  0.00  0.00    +0.000 A 
ATOM     19  C   UNL     1      44.514  22.596 192.559  0.00  0.00    +0.000 A 
ATOM     20  C   UNL     1      43.651  23.268 193.300  0.00  0.00    +0.000 A 
ATOM     21  C   UNL     1      44.143  23.835 194.442  0.00  0.00    +0.000 A 
ATOM     22  C   UNL     1      45.422  23.569 194.870  0.00  0.00    +0.000 A 
BRANCH  17  24
ATOM     23  C   UNL     1      48.306  21.496 194.238  0.00  0.00    +0.000 C 
ATOM     24  O   UNL     1      47.600  22.695 194.518  0.00  0.00    +0.000 OA
ENDBRANCH  17  24
ENDBRANCH  15  20
ENDBRANCH   1  16
TORSDOF 7
ENDMDL
MODEL 4
REMARK VINA RESULT:    -5.878     14.196     18.151
REMARK INTER + INTRA:          -9.112
REMARK INTER:                  -8.449
REMARK INTRA:                  -0.663
REMARK UNBOUND:                -0.828
REMARK  Name = 
REMARK  11 active torsions:
REMARK  status: ('A' for Active; 'I' for Inactive)
REMARK    1  A    between atoms: C_1  and  O_2
REMARK    2  A    between atoms: O_2  and  C_3
REMARK    3  A    between atoms: C_6  and  C_7
REMARK    4  A    between atoms: C_8  and  C_9
REMARK    5  A    between atoms: C_9  and  C_11
REMARK    6  A    between atoms: C_13  and  O_14
REMARK    7  A    between atoms: O_14  and  C_15
REMARK    8  A    between atoms: C_16  and  O_17
REMARK    9  A    between atoms: O_17  and  C_18
REMARK   10  A    between atoms: C_19  and  O_20
REMARK   11  A    between atoms: O_20  and  C_21
REMARK                            x       y       z     vdW  Elec       q    Type
REMARK                         _______ _______ _______ _____ _____    ______ ____
ROOT
ATOM      1  C   UNL     1      40.018  23.311 192.998  0.00  0.00    +0.000 C 
ATOM      2  O   UNL     1      39.456  24.441 193.150  0.00  0.00    +0.000 OA
ENDROOT
BRANCH   1   3
ATOM      3  C   UNL     1      41.440  23.097 193.489  0.00  0.00    +0.000 A 
ATOM      4  C   UNL     1      42.498  23.635 192.775  0.00  0.00    +0.000 A 
ATOM      5  C   UNL     1      43.764  23.135 193.161  0.00  0.00    +0.000 A 
ATOM      6  C   UNL     1      44.007  22.509 194.298  0.00  0.00    +0.000 A 
ATOM      7  C   UNL     1      42.917  22.061 194.991  0.00  0.00    +0.000 A 
ATOM      8  C   UNL     1      41.644  22.400 194.601  0.00  0.00    +0.000 A 
BRANCH   5   9
ATOM      9  O   UNL     1      44.848  23.318 192.263  0.00  0.00    +0.000 OA
ATOM     10  C   UNL     1      44.683  23.029 190.883  0.00  0.00    +0.000 C 
ENDBRANCH   5   9
BRANCH   6  11
ATOM     11  O   UNL     1      45.330  22.313 194.776  0.00  0.00    +0.000 OA
ATOM     12  C   UNL     1      46.029  21.118 194.460  0.00  0.00    +0.000 C 
ENDBRANCH   6  11
BRANCH   7  13
ATOM     13  O   UNL     1      43.104  21.234 196.130  0.00  0.00    +0.000 OA
ATOM     14  C   UNL     1      41.994  20.889 196.946  0.00  0.00    +0.000 C 
ENDBRANCH   7  13
ENDBRANCH   1   3
BRANCH   1  16
ATOM     15  C   UNL     1      39.954  21.134 191.782  0.00  0.00    +0.000 C 
ATOM     16  C   UNL     1      39.267  22.174 192.326  0.00  0.00    +0.000 C 
BRANCH  15  20
ATOM     17  C   UNL     1      37.850  18.061 189.689  0.00  0.00    +0.000 A 
ATOM     18  C   UNL     1      39.234  18.085 189.622  0.00  0.00    +0.000 A 
ATOM     19  C   UNL     1      39.836  18.998 190.518  0.00  0.00    +0.000 A 
ATOM     20  C   UNL     1      39.203  19.995 191.109  0.00  0.00    +0.000 A 
ATOM     21  C   UNL     1      37.837  19.949 191.083  0.00  0.00    +0.000 A 
ATOM     22  C   UNL     1      37.176  19.005 190.335  0.00  0.00    +0.000 A 
BRANCH  17  24
ATOM     23  C   UNL     1      36.458  17.246 187.833  0.00  0.00    +0.000 C 
ATOM     24  O   UNL     1      37.140  17.007 189.055  0.00  0.00    +0.000 OA
ENDBRANCH  17  24
ENDBRANCH  15  20
ENDBRANCH   1  16
TORSDOF 7
ENDMDL
MODEL 5
REMARK VINA RESULT:    -5.642      4.693      7.831
REMARK INTER + INTRA:          -8.779
REMARK INTER:                  -7.951
REMARK INTRA:                  -0.828
REMARK UNBOUND:                -0.828
REMARK  Name = 
REMARK  11 active torsions:
REMARK  status: ('A' for Active; 'I' for Inactive)
REMARK    1  A    between atoms: C_1  and  O_2
REMARK    2  A    between atoms: O_2  and  C_3
REMARK    3  A    between atoms: C_6  and  C_7
REMARK    4  A    between atoms: C_8  and  C_9
REMARK    5  A    between atoms: C_9  and  C_11
REMARK    6  A    between atoms: C_13  and  O_14
REMARK    7  A    between atoms: O_14  and  C_15
REMARK    8  A    between atoms: C_16  and  O_17
REMARK    9  A    between atoms: O_17  and  C_18
REMARK   10  A    between atoms: C_19  and  O_20
REMARK   11  A    between atoms: O_20  and  C_21
REMARK                            x       y       z     vdW  Elec       q    Type
REMARK                         _______ _______ _______ _____ _____    ______ ____
ROOT
ATOM      1  C   UNL     1      53.951  27.364 201.119  0.00  0.00    +0.000 C 
ATOM      2  O   UNL     1      54.698  28.086 201.851  0.00  0.00    +0.000 OA
ENDROOT
BRANCH   1   3
ATOM      3  C   UNL     1      53.016  28.015 200.112  0.00  0.00    +0.000 A 
ATOM      4  C   UNL     1      51.657  28.060 200.371  0.00  0.00    +0.000 A 
ATOM      5  C   UNL     1      50.871  28.424 199.252  0.00  0.00    +0.000 A 
ATOM      6  C   UNL     1      51.340  29.015 198.168  0.00  0.00    +0.000 A 
ATOM      7  C   UNL     1      52.697  28.995 198.003  0.00  0.00    +0.000 A 
ATOM      8  C   UNL     1      53.523  28.534 199.000  0.00  0.00    +0.000 A 
BRANCH   5   9
ATOM      9  O   UNL     1      49.482  28.131 199.297  0.00  0.00    +0.000 OA
ATOM     10  C   UNL     1      48.641  28.819 200.211  0.00  0.00    +0.000 C 
ENDBRANCH   5   9
BRANCH   6  11
ATOM     11  O   UNL     1      50.480  29.638 197.225  0.00  0.00    +0.000 OA
ATOM     12  C   UNL     1      50.307  31.047 197.244  0.00  0.00    +0.000 C 
ENDBRANCH   6  11
BRANCH   7  13
ATOM     13  O   UNL     1      53.260  29.457 196.784  0.00  0.00    +0.000 OA
ATOM     14  C   UNL     1      54.360  30.357 196.806  0.00  0.00    +0.000 C 
ENDBRANCH   7  13
ENDBRANCH   1   3
BRANCH   1  16
ATOM     15  C   UNL     1      54.104  25.075 200.138  0.00  0.00    +0.000 C 
ATOM     16  C   UNL     1      53.991  25.851 201.249  0.00  0.00    +0.000 C 
BRANCH  15  20
ATOM     17  C   UNL     1      54.359  20.847 200.694  0.00  0.00    +0.000 A 
ATOM     18  C   UNL     1      53.425  21.560 201.428  0.00  0.00    +0.000 A 
ATOM     19  C   UNL     1      53.273  22.903 201.013  0.00  0.00    +0.000 A 
ATOM     20  C   UNL     1      54.144  23.560 200.269  0.00  0.00    +0.000 A 
ATOM     21  C   UNL     1      55.083  22.806 199.623  0.00  0.00    +0.000 A 
ATOM     22  C   UNL     1      55.208  21.461 199.878  0.00  0.00    +0.000 A 
BRANCH  17  24
ATOM     23  C   UNL     1      55.280  18.680 199.985  0.00  0.00    +0.000 C 
ATOM     24  O   UNL     1      54.411  19.433 200.818  0.00  0.00    +0.000 OA
ENDBRANCH  17  24
ENDBRANCH  15  20
ENDBRANCH   1  16
TORSDOF 7
ENDMDL
