MODEL 1
REMARK VINA RESULT:    -6.878      0.000      0.000
REMARK INTER + INTRA:          -9.159
REMARK INTER:                  -8.491
REMARK INTRA:                  -0.668
REMARK UNBOUND:                -0.673
REMARK  Name = 
REMARK  6 active torsions:
REMARK  status: ('A' for Active; 'I' for Inactive)
REMARK    1  A    between atoms: C_1  and  O_2
REMARK    2  A    between atoms: O_2  and  C_3
REMARK    3  A    between atoms: C_6  and  C_7
REMARK    4  A    between atoms: C_8  and  C_9
REMARK    5  A    between atoms: C_11  and  O_12
REMARK    6  A    between atoms: C_14  and  O_15
REMARK                            x       y       z     vdW  Elec       q    Type
REMARK                         _______ _______ _______ _____ _____    ______ ____
ROOT
ATOM      1  C   UNL     1      43.818  38.392 183.692  0.00  0.00    +0.000 C 
ATOM      2  C   UNL     1      42.846  37.731 184.375  0.00  0.00    +0.000 C 
ENDROOT
BRANCH   1   6
ATOM      3  C   UNL     1      47.802  36.904 184.086  0.00  0.00    +0.000 A 
ATOM      4  C   UNL     1      47.003  36.403 183.072  0.00  0.00    +0.000 A 
ATOM      5  C   UNL     1      45.792  37.113 182.892  0.00  0.00    +0.000 A 
ATOM      6  C   UNL     1      45.263  37.929 183.787  0.00  0.00    +0.000 A 
ATOM      7  C   UNL     1      46.085  38.333 184.802  0.00  0.00    +0.000 A 
ATOM      8  C   UNL     1      47.331  37.781 184.965  0.00  0.00    +0.000 A 
BRANCH   3  10
ATOM      9  C   UNL     1      49.528  35.190 183.716  0.00  0.00    +0.000 C 
ATOM     10  O   UNL     1      49.150  36.470 184.201  0.00  0.00    +0.000 OA
ENDBRANCH   3  10
ENDBRANCH   1   6
BRANCH   2  11
ATOM     11  C   UNL     1      43.203  36.528 185.235  0.00  0.00    +0.000 A 
ATOM     12  C   UNL     1      43.445  36.692 186.587  0.00  0.00    +0.000 A 
ATOM     13  C   UNL     1      44.033  35.563 187.206  0.00  0.00    +0.000 A 
ATOM     14  C   UNL     1      44.034  34.345 186.693  0.00  0.00    +0.000 A 
ATOM     15  C   UNL     1      43.720  34.243 185.367  0.00  0.00    +0.000 A 
ATOM     16  C   UNL     1      43.263  35.331 184.663  0.00  0.00    +0.000 A 
BRANCH  13  17
ATOM     17  O   UNL     1      44.665  35.751 188.463  0.00  0.00    +0.000 OA
ATOM     18  H   UNL     1      44.175  35.531 189.306  0.00  0.00    +0.000 HD
ENDBRANCH  13  17
BRANCH  15  19
ATOM     19  O   UNL     1      43.866  32.994 184.707  0.00  0.00    +0.000 OA
ATOM     20  H   UNL     1      43.057  32.471 184.440  0.00  0.00    +0.000 HD
ENDBRANCH  15  19
ENDBRANCH   2  11
TORSDOF 5
ENDMDL
MODEL 2
REMARK VINA RESULT:    -6.625     15.006     16.924
REMARK INTER + INTRA:          -8.847
REMARK INTER:                  -8.661
REMARK INTRA:                  -0.186
REMARK UNBOUND:                -0.673
REMARK  Name = 
REMARK  6 active torsions:
REMARK  status: ('A' for Active; 'I' for Inactive)
REMARK    1  A    between atoms: C_1  and  O_2
REMARK    2  A    between atoms: O_2  and  C_3
REMARK    3  A    between atoms: C_6  and  C_7
REMARK    4  A    between atoms: C_8  and  C_9
REMARK    5  A    between atoms: C_11  and  O_12
REMARK    6  A    between atoms: C_14  and  O_15
REMARK                            x       y       z     vdW  Elec       q    Type
REMARK                         _______ _______ _______ _____ _____    ______ ____
ROOT
ATOM      1  C   UNL     1      53.430  31.827 197.968  0.00  0.00    +0.000 C 
ATOM      2  C   UNL     1      54.471  31.289 197.277  0.00  0.00    +0.000 C 
ENDROOT
BRANCH   1   6
ATOM      3  C   UNL     1      50.066  29.290 198.667  0.00  0.00    +0.000 A 
ATOM      4  C   UNL     1      51.149  29.208 199.525  0.00  0.00    +0.000 A 
ATOM      5  C   UNL     1      52.107  30.233 199.340  0.00  0.00    +0.000 A 
ATOM      6  C   UNL     1      52.196  30.988 198.259  0.00  0.00    +0.000 A 
ATOM      7  C   UNL     1      51.119  30.973 197.417  0.00  0.00    +0.000 A 
ATOM      8  C   UNL     1      50.085  30.090 197.607  0.00  0.00    +0.000 A 
BRANCH   3  10
ATOM      9  C   UNL     1      48.121  28.739 200.069  0.00  0.00    +0.000 C 
ATOM     10  O   UNL     1      48.910  28.501 198.912  0.00  0.00    +0.000 OA
ENDBRANCH   3  10
ENDBRANCH   1   6
BRANCH   2  11
ATOM     11  C   UNL     1      54.401  29.849 196.795  0.00  0.00    +0.000 A 
ATOM     12  C   UNL     1      54.348  29.575 195.439  0.00  0.00    +0.000 A 
ATOM     13  C   UNL     1      54.006  28.236 195.138  0.00  0.00    +0.000 A 
ATOM     14  C   UNL     1      54.078  27.234 195.995  0.00  0.00    +0.000 A 
ATOM     15  C   UNL     1      54.198  27.569 197.315  0.00  0.00    +0.000 A 
ATOM     16  C   UNL     1      54.404  28.874 197.696  0.00  0.00    +0.000 A 
BRANCH  13  17
ATOM     17  O   UNL     1      53.553  27.949 193.823  0.00  0.00    +0.000 OA
ATOM     18  H   UNL     1      54.118  27.398 193.209  0.00  0.00    +0.000 HD
ENDBRANCH  13  17
BRANCH  15  19
ATOM     19  O   UNL     1      54.111  26.556 198.306  0.00  0.00    +0.000 OA
ATOM     20  H   UNL     1      54.934  26.251 198.784  0.00  0.00    +0.000 HD
ENDBRANCH  15  19
ENDBRANCH   2  11
TORSDOF 5
ENDMDL
MODEL 3
REMARK VINA RESULT:    -6.564      1.545      5.015
REMARK INTER + INTRA:          -8.772
REMARK INTER:                  -8.086
REMARK INTRA:                  -0.686
REMARK UNBOUND:                -0.673
REMARK  Name = 
REMARK  6 active torsions:
REMARK  status: ('A' for Active; 'I' for Inactive)
REMARK    1  A    between atoms: C_1  and  O_2
REMARK    2  A    between atoms: O_2  and  C_3
REMARK    3  A    between atoms: C_6  and  C_7
REMARK    4  A    between atoms: C_8  and  C_9
REMARK    5  A    between atoms: C_11  and  O_12
REMARK    6  A    between atoms: C_14  and  O_15
REMARK                            x       y       z     vdW  Elec       q    Type
REMARK                         _______ _______ _______ _____ _____    ______ ____
ROOT
ATOM      1  C   UNL     1      43.884  38.925 182.940  0.00  0.00    +0.000 C 
ATOM      2  C   UNL     1      45.053  38.718 182.276  0.00  0.00    +0.000 C 
ENDROOT
BRANCH   1   6
ATOM      3  C   UNL     1      43.315  36.741 186.566  0.00  0.00    +0.000 A 
ATOM      4  C   UNL     1      43.970  37.960 186.620  0.00  0.00    +0.000 A 
ATOM      5  C   UNL     1      43.912  38.697 185.414  0.00  0.00    +0.000 A 
ATOM      6  C   UNL     1      43.604  38.182 184.237  0.00  0.00    +0.000 A 
ATOM      7  C   UNL     1      43.022  36.945 184.247  0.00  0.00    +0.000 A 
ATOM      8  C   UNL     1      42.925  36.220 185.409  0.00  0.00    +0.000 A 
BRANCH   3  10
ATOM      9  C   UNL     1      43.112  36.691 189.017  0.00  0.00    +0.000 C 
ATOM     10  O   UNL     1      43.060  36.023 187.765  0.00  0.00    +0.000 OA
ENDBRANCH   3  10
ENDBRANCH   1   6
BRANCH   2  11
ATOM     11  C   UNL     1      46.080  37.743 182.829  0.00  0.00    +0.000 A 
ATOM     12  C   UNL     1      46.038  36.410 182.458  0.00  0.00    +0.000 A 
ATOM     13  C   UNL     1      46.858  35.569 183.247  0.00  0.00    +0.000 A 
ATOM     14  C   UNL     1      47.845  35.994 184.016  0.00  0.00    +0.000 A 
ATOM     15  C   UNL     1      47.869  37.332 184.291  0.00  0.00    +0.000 A 
ATOM     16  C   UNL     1      47.012  38.199 183.657  0.00  0.00    +0.000 A 
BRANCH  13  17
ATOM     17  O   UNL     1      46.604  34.173 183.209  0.00  0.00    +0.000 OA
ATOM     18  H   UNL     1      46.682  33.628 184.044  0.00  0.00    +0.000 HD
ENDBRANCH  13  17
BRANCH  15  19
ATOM     19  O   UNL     1      48.794  37.835 185.244  0.00  0.00    +0.000 OA
ATOM     20  H   UNL     1      49.373  37.204 185.761  0.00  0.00    +0.000 HD
ENDBRANCH  15  19
ENDBRANCH   2  11
TORSDOF 5
ENDMDL
MODEL 4
REMARK VINA RESULT:    -6.466     15.496     17.544
REMARK INTER + INTRA:          -8.651
REMARK INTER:                  -7.978
REMARK INTRA:                  -0.673
REMARK UNBOUND:                -0.673
REMARK  Name = 
REMARK  6 active torsions:
REMARK  status: ('A' for Active; 'I' for Inactive)
REMARK    1  A    between atoms: C_1  and  O_2
REMARK    2  A    between atoms: O_2  and  C_3
REMARK    3  A    between atoms: C_6  and  C_7
REMARK    4  A    between atoms: C_8  and  C_9
REMARK    5  A    between atoms: C_11  and  O_12
REMARK    6  A    between atoms: C_14  and  O_15
REMARK                            x       y       z     vdW  Elec       q    Type
REMARK                         _______ _______ _______ _____ _____    ______ ____
ROOT
ATOM      1  C   UNL     1      53.285  29.549 195.461  0.00  0.00    +0.000 C 
ATOM      2  C   UNL     1      54.447  30.236 195.628  0.00  0.00    +0.000 C 
ENDROOT
BRANCH   1   6
ATOM      3  C   UNL     1      51.053  28.652 198.991  0.00  0.00    +0.000 A 
ATOM      4  C   UNL     1      50.827  29.859 198.350  0.00  0.00    +0.000 A 
ATOM      5  C   UNL     1      51.449  29.962 197.084  0.00  0.00    +0.000 A 
ATOM      6  C   UNL     1      52.436  29.186 196.669  0.00  0.00    +0.000 A 
ATOM      7  C   UNL     1      52.652  28.042 197.386  0.00  0.00    +0.000 A 
ATOM      8  C   UNL     1      51.987  27.810 198.564  0.00  0.00    +0.000 A 
BRANCH   3  10
ATOM      9  C   UNL     1      48.909  28.664 200.197  0.00  0.00    +0.000 C 
ATOM     10  O   UNL     1      50.281  28.304 200.131  0.00  0.00    +0.000 OA
ENDBRANCH   3  10
ENDBRANCH   1   6
BRANCH   2  11
ATOM     11  C   UNL     1      54.897  30.643 197.022  0.00  0.00    +0.000 A 
ATOM     12  C   UNL     1      55.761  29.830 197.735  0.00  0.00    +0.000 A 
ATOM     13  C   UNL     1      55.876  30.175 199.103  0.00  0.00    +0.000 A 
ATOM     14  C   UNL     1      55.518  31.339 199.613  0.00  0.00    +0.000 A 
ATOM     15  C   UNL     1      54.719  32.126 198.832  0.00  0.00    +0.000 A 
ATOM     16  C   UNL     1      54.455  31.788 197.526  0.00  0.00    +0.000 A 
BRANCH  13  17
ATOM     17  O   UNL     1      56.414  29.203 199.987  0.00  0.00    +0.000 OA
ATOM     18  H   UNL     1      57.058  28.518 199.645  0.00  0.00    +0.000 HD
ENDBRANCH  13  17
BRANCH  15  19
ATOM     19  O   UNL     1      54.155  33.311 199.377  0.00  0.00    +0.000 OA
ATOM     20  H   UNL     1      53.182  33.342 199.606  0.00  0.00    +0.000 HD
ENDBRANCH  15  19
ENDBRANCH   2  11
TORSDOF 5
ENDMDL
MODEL 5
REMARK VINA RESULT:    -6.411     14.793     17.162
REMARK INTER + INTRA:          -8.583
REMARK INTER:                  -8.040
REMARK INTRA:                  -0.543
REMARK UNBOUND:                -0.673
REMARK  Name = 
REMARK  6 active torsions:
REMARK  status: ('A' for Active; 'I' for Inactive)
REMARK    1  A    between atoms: C_1  and  O_2
REMARK    2  A    between atoms: O_2  and  C_3
REMARK    3  A    between atoms: C_6  and  C_7
REMARK    4  A    between atoms: C_8  and  C_9
REMARK    5  A    between atoms: C_11  and  O_12
REMARK    6  A    between atoms: C_14  and  O_15
REMARK                            x       y       z     vdW  Elec       q    Type
REMARK                         _______ _______ _______ _____ _____    ______ ____
ROOT
ATOM      1  C   UNL     1      42.751  22.683 192.164  0.00  0.00    +0.000 C 
ATOM      2  C   UNL     1      42.773  23.924 192.721  0.00  0.00    +0.000 C 
ENDROOT
BRANCH   1   6
ATOM      3  C   UNL     1      39.114  20.473 192.528  0.00  0.00    +0.000 A 
ATOM      4  C   UNL     1      39.310  21.248 191.398  0.00  0.00    +0.000 A 
ATOM      5  C   UNL     1      40.624  21.759 191.273  0.00  0.00    +0.000 A 
ATOM      6  C   UNL     1      41.497  21.829 192.262  0.00  0.00    +0.000 A 
ATOM      7  C   UNL     1      41.211  21.092 193.378  0.00  0.00    +0.000 A 
ATOM      8  C   UNL     1      40.001  20.458 193.516  0.00  0.00    +0.000 A 
BRANCH   3  10
ATOM      9  C   UNL     1      37.128  19.443 191.505  0.00  0.00    +0.000 C 
ATOM     10  O   UNL     1      37.941  19.681 192.645  0.00  0.00    +0.000 OA
ENDBRANCH   3  10
ENDBRANCH   1   6
BRANCH   2  11
ATOM     11  C   UNL     1      41.546  24.457 193.442  0.00  0.00    +0.000 A 
ATOM     12  C   UNL     1      40.492  24.985 192.717  0.00  0.00    +0.000 A 
ATOM     13  C   UNL     1      39.551  25.692 193.503  0.00  0.00    +0.000 A 
ATOM     14  C   UNL     1      39.440  25.583 194.815  0.00  0.00    +0.000 A 
ATOM     15  C   UNL     1      40.485  24.991 195.467  0.00  0.00    +0.000 A 
ATOM     16  C   UNL     1      41.507  24.393 194.768  0.00  0.00    +0.000 A 
BRANCH  13  17
ATOM     17  O   UNL     1      38.665  26.579 192.836  0.00  0.00    +0.000 OA
ATOM     18  H   UNL     1      39.001  27.152 192.090  0.00  0.00    +0.000 HD
ENDBRANCH  13  17
BRANCH  15  19
ATOM     19  O   UNL     1      40.515  24.992 196.887  0.00  0.00    +0.000 OA
ATOM     20  H   UNL     1      39.778  24.556 197.403  0.00  0.00    +0.000 HD
ENDBRANCH  15  19
ENDBRANCH   2  11
TORSDOF 5
ENDMDL
