MODEL 1
REMARK VINA RESULT:    -7.452      0.000      0.000
REMARK INTER + INTRA:         -13.226
REMARK INTER:                  -9.976
REMARK INTRA:                  -3.250
REMARK UNBOUND:                -1.853
REMARK  Name = 
REMARK  10 active torsions:
REMARK  status: ('A' for Active; 'I' for Inactive)
REMARK    1  A    between atoms: C_2  and  C_3
REMARK    2  A    between atoms: C_2  and  C_14
REMARK    3  A    between atoms: C_3  and  C_4
REMARK    4  A    between atoms: C_4  and  C_5
REMARK    5  A    between atoms: C_5  and  C_6
REMARK    6  A    between atoms: C_6  and  C_7
REMARK    7  A    between atoms: C_10  and  O_11
REMARK    8  A    between atoms: C_14  and  C_15
REMARK    9  A    between atoms: C_15  and  C_16
REMARK   10  A    between atoms: C_19  and  O_20
REMARK                            x       y       z     vdW  Elec       q    Type
REMARK                         _______ _______ _______ _____ _____    ______ ____
ROOT
ATOM      1  O   UNL     1      44.881  19.032 194.764  0.00  0.00    +0.000 OA
ATOM      2  C   UNL     1      43.979  19.896 194.531  0.00  0.00    +0.000 C 
ENDROOT
BRANCH   2   3
ATOM      3  C   UNL     1      44.241  21.365 194.817  0.00  0.00    +0.000 C 
BRANCH   3   4
ATOM      4  C   UNL     1      44.804  22.033 193.574  0.00  0.00    +0.000 C 
BRANCH   4   5
ATOM      5  C   UNL     1      44.194  23.417 193.422  0.00  0.00    +0.000 C 
BRANCH   5   6
ATOM      6  C   UNL     1      43.330  23.726 194.634  0.00  0.00    +0.000 C 
BRANCH   6   7
ATOM      7  C   UNL     1      42.037  24.385 194.181  0.00  0.00    +0.000 A 
ATOM      8  C   UNL     1      41.109  24.646 195.164  0.00  0.00    +0.000 A 
ATOM      9  C   UNL     1      39.945  25.369 194.883  0.00  0.00    +0.000 A 
ATOM     10  C   UNL     1      39.768  25.833 193.563  0.00  0.00    +0.000 A 
ATOM     11  C   UNL     1      40.687  25.540 192.585  0.00  0.00    +0.000 A 
ATOM     12  C   UNL     1      41.826  24.824 192.897  0.00  0.00    +0.000 A 
BRANCH  10  13
ATOM     13  O   UNL     1      38.685  26.560 193.204  0.00  0.00    +0.000 OA
ATOM     14  H   UNL     1      38.732  27.559 193.206  0.00  0.00    +0.000 HD
ENDBRANCH  10  13
ENDBRANCH   6   7
ENDBRANCH   5   6
ENDBRANCH   4   5
ENDBRANCH   3   4
ENDBRANCH   2   3
BRANCH   2  15
ATOM     15  C   UNL     1      42.638  19.460 193.964  0.00  0.00    +0.000 C 
BRANCH  15  16
ATOM     16  C   UNL     1      41.547  20.388 194.474  0.00  0.00    +0.000 C 
BRANCH  16  17
ATOM     17  C   UNL     1      40.888  21.089 193.298  0.00  0.00    +0.000 A 
ATOM     18  C   UNL     1      41.540  21.158 192.087  0.00  0.00    +0.000 A 
ATOM     19  C   UNL     1      40.951  21.789 190.985  0.00  0.00    +0.000 A 
ATOM     20  C   UNL     1      39.662  22.334 191.157  0.00  0.00    +0.000 A 
ATOM     21  C   UNL     1      39.034  22.285 192.379  0.00  0.00    +0.000 A 
ATOM     22  C   UNL     1      39.644  21.655 193.445  0.00  0.00    +0.000 A 
BRANCH  20  23
ATOM     23  O   UNL     1      39.006  22.940 190.142  0.00  0.00    +0.000 OA
ATOM     24  H   UNL     1      39.282  22.769 189.196  0.00  0.00    +0.000 HD
ENDBRANCH  20  23
ENDBRANCH  16  17
ENDBRANCH  15  16
ENDBRANCH   2  15
TORSDOF 10
ENDMDL
MODEL 2
REMARK VINA RESULT:    -7.447      1.127      3.911
REMARK INTER + INTRA:         -13.218
REMARK INTER:                 -10.375
REMARK INTRA:                  -2.843
REMARK UNBOUND:                -1.853
REMARK  Name = 
REMARK  10 active torsions:
REMARK  status: ('A' for Active; 'I' for Inactive)
REMARK    1  A    between atoms: C_2  and  C_3
REMARK    2  A    between atoms: C_2  and  C_14
REMARK    3  A    between atoms: C_3  and  C_4
REMARK    4  A    between atoms: C_4  and  C_5
REMARK    5  A    between atoms: C_5  and  C_6
REMARK    6  A    between atoms: C_6  and  C_7
REMARK    7  A    between atoms: C_10  and  O_11
REMARK    8  A    between atoms: C_14  and  C_15
REMARK    9  A    between atoms: C_15  and  C_16
REMARK   10  A    between atoms: C_19  and  O_20
REMARK                            x       y       z     vdW  Elec       q    Type
REMARK                         _______ _______ _______ _____ _____    ______ ____
ROOT
ATOM      1  O   UNL     1      46.340  23.185 194.965  0.00  0.00    +0.000 OA
ATOM      2  C   UNL     1      45.362  22.748 194.281  0.00  0.00    +0.000 C 
ENDROOT
BRANCH   2   3
ATOM      3  C   UNL     1      45.301  21.279 193.897  0.00  0.00    +0.000 C 
BRANCH   3   4
ATOM      4  C   UNL     1      44.457  20.523 194.910  0.00  0.00    +0.000 C 
BRANCH   4   5
ATOM      5  C   UNL     1      43.380  19.733 194.184  0.00  0.00    +0.000 C 
BRANCH   5   6
ATOM      6  C   UNL     1      42.024  20.370 194.444  0.00  0.00    +0.000 C 
BRANCH   6   7
ATOM      7  C   UNL     1      41.487  20.964 193.152  0.00  0.00    +0.000 A 
ATOM      8  C   UNL     1      40.202  21.456 193.196  0.00  0.00    +0.000 A 
ATOM      9  C   UNL     1      39.655  22.145 192.108  0.00  0.00    +0.000 A 
ATOM     10  C   UNL     1      40.475  22.330 190.975  0.00  0.00    +0.000 A 
ATOM     11  C   UNL     1      41.745  21.807 190.932  0.00  0.00    +0.000 A 
ATOM     12  C   UNL     1      42.253  21.133 192.025  0.00  0.00    +0.000 A 
BRANCH  10  13
ATOM     13  O   UNL     1      40.040  23.003 189.885  0.00  0.00    +0.000 OA
ATOM     14  H   UNL     1      40.352  23.938 189.719  0.00  0.00    +0.000 HD
ENDBRANCH  10  13
ENDBRANCH   6   7
ENDBRANCH   5   6
ENDBRANCH   4   5
ENDBRANCH   3   4
ENDBRANCH   2   3
BRANCH   2  15
ATOM     15  C   UNL     1      44.254  23.693 193.847  0.00  0.00    +0.000 C 
BRANCH  15  16
ATOM     16  C   UNL     1      43.171  23.728 194.914  0.00  0.00    +0.000 C 
BRANCH  16  17
ATOM     17  C   UNL     1      41.966  24.489 194.387  0.00  0.00    +0.000 A 
ATOM     18  C   UNL     1      41.946  24.925 193.081  0.00  0.00    +0.000 A 
ATOM     19  C   UNL     1      40.844  25.619 192.569  0.00  0.00    +0.000 A 
ATOM     20  C   UNL     1      39.751  25.837 193.432  0.00  0.00    +0.000 A 
ATOM     21  C   UNL     1      39.795  25.422 194.742  0.00  0.00    +0.000 A 
ATOM     22  C   UNL     1      40.898  24.741 195.215  0.00  0.00    +0.000 A 
BRANCH  20  23
ATOM     23  O   UNL     1      38.635  26.476 193.016  0.00  0.00    +0.000 OA
ATOM     24  H   UNL     1      38.254  26.281 192.112  0.00  0.00    +0.000 HD
ENDBRANCH  20  23
ENDBRANCH  16  17
ENDBRANCH  15  16
ENDBRANCH   2  15
TORSDOF 10
ENDMDL
MODEL 3
REMARK VINA RESULT:    -7.436     12.272     15.046
REMARK INTER + INTRA:         -13.201
REMARK INTER:                 -10.267
REMARK INTRA:                  -2.934
REMARK UNBOUND:                -1.853
REMARK  Name = 
REMARK  10 active torsions:
REMARK  status: ('A' for Active; 'I' for Inactive)
REMARK    1  A    between atoms: C_2  and  C_3
REMARK    2  A    between atoms: C_2  and  C_14
REMARK    3  A    between atoms: C_3  and  C_4
REMARK    4  A    between atoms: C_4  and  C_5
REMARK    5  A    between atoms: C_5  and  C_6
REMARK    6  A    between atoms: C_6  and  C_7
REMARK    7  A    between atoms: C_10  and  O_11
REMARK    8  A    between atoms: C_14  and  C_15
REMARK    9  A    between atoms: C_15  and  C_16
REMARK   10  A    between atoms: C_19  and  O_20
REMARK                            x       y       z     vdW  Elec       q    Type
REMARK                         _______ _______ _______ _____ _____    ______ ____
ROOT
ATOM      1  O   UNL     1      50.192  28.799 201.403  0.00  0.00    +0.000 OA
ATOM      2  C   UNL     1      50.830  28.486 200.349  0.00  0.00    +0.000 C 
ENDROOT
BRANCH   2   3
ATOM      3  C   UNL     1      50.078  28.239 199.052  0.00  0.00    +0.000 C 
BRANCH   3   4
ATOM      4  C   UNL     1      49.926  29.549 198.297  0.00  0.00    +0.000 C 
BRANCH   4   5
ATOM      5  C   UNL     1      50.962  29.617 197.185  0.00  0.00    +0.000 C 
BRANCH   5   6
ATOM      6  C   UNL     1      51.458  28.215 196.870  0.00  0.00    +0.000 C 
BRANCH   6   7
ATOM      7  C   UNL     1      52.798  28.300 196.158  0.00  0.00    +0.000 A 
ATOM      8  C   UNL     1      53.649  27.230 196.330  0.00  0.00    +0.000 A 
ATOM      9  C   UNL     1      54.848  27.140 195.615  0.00  0.00    +0.000 A 
ATOM     10  C   UNL     1      55.143  28.175 194.703  0.00  0.00    +0.000 A 
ATOM     11  C   UNL     1      54.300  29.251 194.563  0.00  0.00    +0.000 A 
ATOM     12  C   UNL     1      53.124  29.308 195.284  0.00  0.00    +0.000 A 
BRANCH  10  13
ATOM     13  O   UNL     1      56.268  28.161 193.952  0.00  0.00    +0.000 OA
ATOM     14  H   UNL     1      56.944  28.891 194.053  0.00  0.00    +0.000 HD
ENDBRANCH  10  13
ENDBRANCH   6   7
ENDBRANCH   5   6
ENDBRANCH   4   5
ENDBRANCH   3   4
ENDBRANCH   2   3
BRANCH   2  15
ATOM     15  C   UNL     1      52.343  28.357 200.386  0.00  0.00    +0.000 C 
BRANCH  15  16
ATOM     16  C   UNL     1      52.956  29.696 200.765  0.00  0.00    +0.000 C 
BRANCH  16  17
ATOM     17  C   UNL     1      53.726  30.254 199.580  0.00  0.00    +0.000 A 
ATOM     18  C   UNL     1      53.331  31.440 199.002  0.00  0.00    +0.000 A 
ATOM     19  C   UNL     1      54.029  31.981 197.916  0.00  0.00    +0.000 A 
ATOM     20  C   UNL     1      55.159  31.278 197.450  0.00  0.00    +0.000 A 
ATOM     21  C   UNL     1      55.526  30.081 198.017  0.00  0.00    +0.000 A 
ATOM     22  C   UNL     1      54.815  29.575 199.087  0.00  0.00    +0.000 A 
BRANCH  20  23
ATOM     23  O   UNL     1      55.908  31.739 196.423  0.00  0.00    +0.000 OA
ATOM     24  H   UNL     1      56.407  31.096 195.841  0.00  0.00    +0.000 HD
ENDBRANCH  20  23
ENDBRANCH  16  17
ENDBRANCH  15  16
ENDBRANCH   2  15
TORSDOF 10
ENDMDL
MODEL 4
REMARK VINA RESULT:    -7.211     12.444     14.930
REMARK INTER + INTRA:         -12.858
REMARK INTER:                  -9.623
REMARK INTRA:                  -3.235
REMARK UNBOUND:                -1.853
REMARK  Name = 
REMARK  10 active torsions:
REMARK  status: ('A' for Active; 'I' for Inactive)
REMARK    1  A    between atoms: C_2  and  C_3
REMARK    2  A    between atoms: C_2  and  C_14
REMARK    3  A    between atoms: C_3  and  C_4
REMARK    4  A    between atoms: C_4  and  C_5
REMARK    5  A    between atoms: C_5  and  C_6
REMARK    6  A    between atoms: C_6  and  C_7
REMARK    7  A    between atoms: C_10  and  O_11
REMARK    8  A    between atoms: C_14  and  C_15
REMARK    9  A    between atoms: C_15  and  C_16
REMARK   10  A    between atoms: C_19  and  O_20
REMARK                            x       y       z     vdW  Elec       q    Type
REMARK                         _______ _______ _______ _____ _____    ______ ____
ROOT
ATOM      1  O   UNL     1      48.648  28.119 198.809  0.00  0.00    +0.000 OA
ATOM      2  C   UNL     1      49.900  28.317 198.708  0.00  0.00    +0.000 C 
ENDROOT
BRANCH   2   3
ATOM      3  C   UNL     1      50.694  28.789 199.915  0.00  0.00    +0.000 C 
BRANCH   3   4
ATOM      4  C   UNL     1      51.781  27.776 200.234  0.00  0.00    +0.000 C 
BRANCH   4   5
ATOM      5  C   UNL     1      53.096  28.502 200.470  0.00  0.00    +0.000 C 
BRANCH   5   6
ATOM      6  C   UNL     1      52.907  29.988 200.213  0.00  0.00    +0.000 C 
BRANCH   6   7
ATOM      7  C   UNL     1      54.066  30.511 199.380  0.00  0.00    +0.000 A 
ATOM      8  C   UNL     1      55.107  29.635 199.167  0.00  0.00    +0.000 A 
ATOM      9  C   UNL     1      56.160  29.963 198.306  0.00  0.00    +0.000 A 
ATOM     10  C   UNL     1      56.105  31.212 197.653  0.00  0.00    +0.000 A 
ATOM     11  C   UNL     1      55.076  32.089 197.898  0.00  0.00    +0.000 A 
ATOM     12  C   UNL     1      54.052  31.733 198.754  0.00  0.00    +0.000 A 
BRANCH  10  13
ATOM     13  O   UNL     1      57.066  31.604 196.786  0.00  0.00    +0.000 OA
ATOM     14  H   UNL     1      57.434  30.954 196.122  0.00  0.00    +0.000 HD
ENDBRANCH  10  13
ENDBRANCH   6   7
ENDBRANCH   5   6
ENDBRANCH   4   5
ENDBRANCH   3   4
ENDBRANCH   2   3
BRANCH   2  15
ATOM     15  C   UNL     1      50.602  28.082 197.381  0.00  0.00    +0.000 C 
BRANCH  15  16
ATOM     16  C   UNL     1      51.401  29.319 197.005  0.00  0.00    +0.000 C 
BRANCH  16  17
ATOM     17  C   UNL     1      52.705  28.899 196.347  0.00  0.00    +0.000 A 
ATOM     18  C   UNL     1      53.382  29.784 195.537  0.00  0.00    +0.000 A 
ATOM     19  C   UNL     1      54.589  29.425 194.927  0.00  0.00    +0.000 A 
ATOM     20  C   UNL     1      55.095  28.136 195.188  0.00  0.00    +0.000 A 
ATOM     21  C   UNL     1      54.396  27.251 195.976  0.00  0.00    +0.000 A 
ATOM     22  C   UNL     1      53.207  27.638 196.561  0.00  0.00    +0.000 A 
BRANCH  20  23
ATOM     23  O   UNL     1      56.266  27.712 194.663  0.00  0.00    +0.000 OA
ATOM     24  H   UNL     1      56.954  28.378 194.373  0.00  0.00    +0.000 HD
ENDBRANCH  20  23
ENDBRANCH  16  17
ENDBRANCH  15  16
ENDBRANCH   2  15
TORSDOF 10
ENDMDL
MODEL 5
REMARK VINA RESULT:    -6.879     12.020     14.373
REMARK INTER + INTRA:         -12.351
REMARK INTER:                 -10.498
REMARK INTRA:                  -1.853
REMARK UNBOUND:                -1.853
REMARK  Name = 
REMARK  10 active torsions:
REMARK  status: ('A' for Active; 'I' for Inactive)
REMARK    1  A    between atoms: C_2  and  C_3
REMARK    2  A    between atoms: C_2  and  C_14
REMARK    3  A    between atoms: C_3  and  C_4
REMARK    4  A    between atoms: C_4  and  C_5
REMARK    5  A    between atoms: C_5  and  C_6
REMARK    6  A    between atoms: C_6  and  C_7
REMARK    7  A    between atoms: C_10  and  O_11
REMARK    8  A    between atoms: C_14  and  C_15
REMARK    9  A    between atoms: C_15  and  C_16
REMARK   10  A    between atoms: C_19  and  O_20
REMARK                            x       y       z     vdW  Elec       q    Type
REMARK                         _______ _______ _______ _____ _____    ______ ____
ROOT
ATOM      1  O   UNL     1      55.412  32.154 201.058  0.00  0.00    +0.000 OA
ATOM      2  C   UNL     1      54.802  31.556 200.117  0.00  0.00    +0.000 C 
ENDROOT
BRANCH   2   3
ATOM      3  C   UNL     1      53.642  30.627 200.433  0.00  0.00    +0.000 C 
BRANCH   3   4
ATOM      4  C   UNL     1      54.079  29.185 200.236  0.00  0.00    +0.000 C 
BRANCH   4   5
ATOM      5  C   UNL     1      52.852  28.301 200.072  0.00  0.00    +0.000 C 
BRANCH   5   6
ATOM      6  C   UNL     1      51.743  28.801 200.983  0.00  0.00    +0.000 C 
BRANCH   6   7
ATOM      7  C   UNL     1      50.407  28.683 200.268  0.00  0.00    +0.000 A 
ATOM      8  C   UNL     1      50.440  28.156 198.996  0.00  0.00    +0.000 A 
ATOM      9  C   UNL     1      49.260  27.877 198.299  0.00  0.00    +0.000 A 
ATOM     10  C   UNL     1      48.039  28.140 198.955  0.00  0.00    +0.000 A 
ATOM     11  C   UNL     1      48.019  28.694 200.212  0.00  0.00    +0.000 A 
ATOM     12  C   UNL     1      49.204  28.956 200.871  0.00  0.00    +0.000 A 
BRANCH  10  13
ATOM     13  O   UNL     1      46.847  27.881 198.368  0.00  0.00    +0.000 OA
ATOM     14  H   UNL     1      46.695  27.003 197.914  0.00  0.00    +0.000 HD
ENDBRANCH  10  13
ENDBRANCH   6   7
ENDBRANCH   5   6
ENDBRANCH   4   5
ENDBRANCH   3   4
ENDBRANCH   2   3
BRANCH   2  15
ATOM     15  C   UNL     1      55.234  31.770 198.675  0.00  0.00    +0.000 C 
BRANCH  15  16
ATOM     16  C   UNL     1      54.004  31.953 197.801  0.00  0.00    +0.000 C 
BRANCH  16  17
ATOM     17  C   UNL     1      53.880  30.775 196.848  0.00  0.00    +0.000 A 
ATOM     18  C   UNL     1      52.749  29.989 196.872  0.00  0.00    +0.000 A 
ATOM     19  C   UNL     1      52.606  28.905 195.999  0.00  0.00    +0.000 A 
ATOM     20  C   UNL     1      53.650  28.660 195.085  0.00  0.00    +0.000 A 
ATOM     21  C   UNL     1      54.787  29.434 195.090  0.00  0.00    +0.000 A 
ATOM     22  C   UNL     1      54.896  30.496 195.966  0.00  0.00    +0.000 A 
BRANCH  20  23
ATOM     23  O   UNL     1      53.587  27.651 194.188  0.00  0.00    +0.000 OA
ATOM     24  H   UNL     1      52.699  27.290 193.902  0.00  0.00    +0.000 HD
ENDBRANCH  20  23
ENDBRANCH  16  17
ENDBRANCH  15  16
ENDBRANCH   2  15
TORSDOF 10
ENDMDL
