MODEL 1
REMARK VINA RESULT:    -6.581      0.000      0.000
REMARK INTER + INTRA:          -8.610
REMARK INTER:                  -8.144
REMARK INTRA:                  -0.466
REMARK UNBOUND:                -0.490
REMARK  Name = 
REMARK  6 active torsions:
REMARK  status: ('A' for Active; 'I' for Inactive)
REMARK    1  A    between atoms: C_1  and  O_2
REMARK    2  A    between atoms: O_2  and  C_3
REMARK    3  A    between atoms: C_5  and  C_6
REMARK    4  A    between atoms: C_7  and  C_8
REMARK    5  A    between atoms: C_15  and  O_16
REMARK    6  A    between atoms: O_16  and  C_17
REMARK                            x       y       z     vdW  Elec       q    Type
REMARK                         _______ _______ _______ _____ _____    ______ ____
ROOT
ATOM      1  C   UNL     1      54.971  30.832 196.518  0.00  0.00    +0.000 A 
ATOM      2  C   UNL     1      53.674  31.018 196.970  0.00  0.00    +0.000 A 
ATOM      3  C   UNL     1      52.820  29.915 196.732  0.00  0.00    +0.000 A 
ATOM      4  C   UNL     1      53.067  28.951 195.865  0.00  0.00    +0.000 A 
ATOM      5  C   UNL     1      54.351  28.862 195.403  0.00  0.00    +0.000 A 
ATOM      6  C   UNL     1      55.277  29.833 195.701  0.00  0.00    +0.000 A 
ENDROOT
BRANCH   1   8
ATOM      7  C   UNL     1      56.551  31.756 198.160  0.00  0.00    +0.000 C 
ATOM      8  O   UNL     1      55.946  31.800 196.877  0.00  0.00    +0.000 OA
ENDBRANCH   1   8
BRANCH   3   9
ATOM      9  C   UNL     1      51.529  29.836 197.529  0.00  0.00    +0.000 C 
ATOM     10  C   UNL     1      50.989  28.625 197.831  0.00  0.00    +0.000 C 
BRANCH  10  11
ATOM     11  C   UNL     1      49.696  28.546 198.627  0.00  0.00    +0.000 A 
ATOM     12  C   UNL     1      48.546  27.975 198.107  0.00  0.00    +0.000 A 
ATOM     13  C   UNL     1      47.394  28.180 198.902  0.00  0.00    +0.000 A 
ATOM     14  C   UNL     1      47.415  28.544 200.172  0.00  0.00    +0.000 A 
ATOM     15  C   UNL     1      48.600  29.035 200.644  0.00  0.00    +0.000 A 
ATOM     16  C   UNL     1      49.740  28.989 199.878  0.00  0.00    +0.000 A 
ENDBRANCH  10  11
ENDBRANCH   3   9
BRANCH   5  17
ATOM     17  O   UNL     1      54.732  27.753 194.604  0.00  0.00    +0.000 OA
ATOM     18  C   UNL     1      55.797  26.910 195.020  0.00  0.00    +0.000 C 
ENDBRANCH   5  17
TORSDOF 4
ENDMDL
MODEL 2
REMARK VINA RESULT:    -6.468     10.603     14.295
REMARK INTER + INTRA:          -8.471
REMARK INTER:                  -8.011
REMARK INTRA:                  -0.460
REMARK UNBOUND:                -0.490
REMARK  Name = 
REMARK  6 active torsions:
REMARK  status: ('A' for Active; 'I' for Inactive)
REMARK    1  A    between atoms: C_1  and  O_2
REMARK    2  A    between atoms: O_2  and  C_3
REMARK    3  A    between atoms: C_5  and  C_6
REMARK    4  A    between atoms: C_7  and  C_8
REMARK    5  A    between atoms: C_15  and  O_16
REMARK    6  A    between atoms: O_16  and  C_17
REMARK                            x       y       z     vdW  Elec       q    Type
REMARK                         _______ _______ _______ _____ _____    ______ ____
ROOT
ATOM      1  C   UNL     1      39.620  22.331 191.958  0.00  0.00    +0.000 A 
ATOM      2  C   UNL     1      40.995  22.302 191.792  0.00  0.00    +0.000 A 
ATOM      3  C   UNL     1      41.698  23.141 192.688  0.00  0.00    +0.000 A 
ATOM      4  C   UNL     1      41.153  24.132 193.370  0.00  0.00    +0.000 A 
ATOM      5  C   UNL     1      39.787  24.143 193.440  0.00  0.00    +0.000 A 
ATOM      6  C   UNL     1      39.035  23.268 192.694  0.00  0.00    +0.000 A 
ENDROOT
BRANCH   1   8
ATOM      7  C   UNL     1      39.114  19.999 191.364  0.00  0.00    +0.000 C 
ATOM      8  O   UNL     1      38.842  21.386 191.237  0.00  0.00    +0.000 OA
ENDBRANCH   1   8
BRANCH   3   9
ATOM      9  C   UNL     1      43.184  22.887 192.877  0.00  0.00    +0.000 C 
ATOM     10  C   UNL     1      43.632  22.281 194.010  0.00  0.00    +0.000 C 
BRANCH  10  11
ATOM     11  C   UNL     1      45.118  22.026 194.199  0.00  0.00    +0.000 A 
ATOM     12  C   UNL     1      46.004  23.044 194.514  0.00  0.00    +0.000 A 
ATOM     13  C   UNL     1      47.365  22.664 194.442  0.00  0.00    +0.000 A 
ATOM     14  C   UNL     1      47.794  21.414 194.439  0.00  0.00    +0.000 A 
ATOM     15  C   UNL     1      46.858  20.450 194.189  0.00  0.00    +0.000 A 
ATOM     16  C   UNL     1      45.522  20.764 194.116  0.00  0.00    +0.000 A 
ENDBRANCH  10  11
ENDBRANCH   3   9
BRANCH   5  17
ATOM     17  O   UNL     1      39.137  25.073 194.293  0.00  0.00    +0.000 OA
ATOM     18  C   UNL     1      39.849  25.667 195.369  0.00  0.00    +0.000 C 
ENDBRANCH   5  17
TORSDOF 4
ENDMDL
MODEL 3
REMARK VINA RESULT:    -6.451     11.583     14.367
REMARK INTER + INTRA:          -8.450
REMARK INTER:                  -7.959
REMARK INTRA:                  -0.490
REMARK UNBOUND:                -0.490
REMARK  Name = 
REMARK  6 active torsions:
REMARK  status: ('A' for Active; 'I' for Inactive)
REMARK    1  A    between atoms: C_1  and  O_2
REMARK    2  A    between atoms: O_2  and  C_3
REMARK    3  A    between atoms: C_5  and  C_6
REMARK    4  A    between atoms: C_7  and  C_8
REMARK    5  A    between atoms: C_15  and  O_16
REMARK    6  A    between atoms: O_16  and  C_17
REMARK                            x       y       z     vdW  Elec       q    Type
REMARK                         _______ _______ _______ _____ _____    ______ ____
ROOT
ATOM      1  C   UNL     1      42.408  24.489 193.714  0.00  0.00    +0.000 A 
ATOM      2  C   UNL     1      41.910  23.667 192.717  0.00  0.00    +0.000 A 
ATOM      3  C   UNL     1      42.663  22.486 192.516  0.00  0.00    +0.000 A 
ATOM      4  C   UNL     1      43.902  22.308 192.937  0.00  0.00    +0.000 A 
ATOM      5  C   UNL     1      44.360  23.194 193.872  0.00  0.00    +0.000 A 
ATOM      6  C   UNL     1      43.623  24.302 194.216  0.00  0.00    +0.000 A 
ENDROOT
BRANCH   1   8
ATOM      7  C   UNL     1      40.620  25.436 195.112  0.00  0.00    +0.000 C 
ATOM      8  O   UNL     1      41.620  25.599 194.118  0.00  0.00    +0.000 OA
ENDBRANCH   1   8
BRANCH   3   9
ATOM      9  C   UNL     1      42.001  21.344 191.763  0.00  0.00    +0.000 C 
ATOM     10  C   UNL     1      41.409  20.329 192.450  0.00  0.00    +0.000 C 
BRANCH  10  11
ATOM     11  C   UNL     1      40.748  19.187 191.696  0.00  0.00    +0.000 A 
ATOM     12  C   UNL     1      40.262  18.063 192.345  0.00  0.00    +0.000 A 
ATOM     13  C   UNL     1      39.877  17.018 191.472  0.00  0.00    +0.000 A 
ATOM     14  C   UNL     1      39.640  17.170 190.181  0.00  0.00    +0.000 A 
ATOM     15  C   UNL     1      40.084  18.332 189.613  0.00  0.00    +0.000 A 
ATOM     16  C   UNL     1      40.594  19.347 190.387  0.00  0.00    +0.000 A 
ENDBRANCH  10  11
ENDBRANCH   3   9
BRANCH   5  17
ATOM     17  O   UNL     1      45.615  22.968 194.496  0.00  0.00    +0.000 OA
ATOM     18  C   UNL     1      46.200  21.674 194.465  0.00  0.00    +0.000 C 
ENDBRANCH   5  17
TORSDOF 4
ENDMDL
MODEL 4
REMARK VINA RESULT:    -6.431      1.270      3.184
REMARK INTER + INTRA:          -8.426
REMARK INTER:                  -7.946
REMARK INTRA:                  -0.479
REMARK UNBOUND:                -0.490
REMARK  Name = 
REMARK  6 active torsions:
REMARK  status: ('A' for Active; 'I' for Inactive)
REMARK    1  A    between atoms: C_1  and  O_2
REMARK    2  A    between atoms: O_2  and  C_3
REMARK    3  A    between atoms: C_5  and  C_6
REMARK    4  A    between atoms: C_7  and  C_8
REMARK    5  A    between atoms: C_15  and  O_16
REMARK    6  A    between atoms: O_16  and  C_17
REMARK                            x       y       z     vdW  Elec       q    Type
REMARK                         _______ _______ _______ _____ _____    ______ ____
ROOT
ATOM      1  C   UNL     1      55.525  29.283 196.420  0.00  0.00    +0.000 A 
ATOM      2  C   UNL     1      54.338  28.891 197.017  0.00  0.00    +0.000 A 
ATOM      3  C   UNL     1      53.919  29.736 198.072  0.00  0.00    +0.000 A 
ATOM      4  C   UNL     1      54.703  30.592 198.701  0.00  0.00    +0.000 A 
ATOM      5  C   UNL     1      55.893  30.887 198.095  0.00  0.00    +0.000 A 
ATOM      6  C   UNL     1      56.310  30.194 196.984  0.00  0.00    +0.000 A 
ENDROOT
BRANCH   1   8
ATOM      7  C   UNL     1      55.528  27.270 195.008  0.00  0.00    +0.000 C 
ATOM      8  O   UNL     1      55.929  28.613 195.235  0.00  0.00    +0.000 OA
ENDBRANCH   1   8
BRANCH   3   9
ATOM      9  C   UNL     1      52.467  29.651 198.512  0.00  0.00    +0.000 C 
ATOM     10  C   UNL     1      51.775  28.491 198.354  0.00  0.00    +0.000 C 
BRANCH  10  11
ATOM     11  C   UNL     1      50.323  28.407 198.794  0.00  0.00    +0.000 A 
ATOM     12  C   UNL     1      49.337  27.880 197.975  0.00  0.00    +0.000 A 
ATOM     13  C   UNL     1      48.022  28.077 198.461  0.00  0.00    +0.000 A 
ATOM     14  C   UNL     1      47.724  28.389 199.710  0.00  0.00    +0.000 A 
ATOM     15  C   UNL     1      48.756  28.838 200.488  0.00  0.00    +0.000 A 
ATOM     16  C   UNL     1      50.052  28.800 200.033  0.00  0.00    +0.000 A 
ENDBRANCH  10  11
ENDBRANCH   3   9
BRANCH   5  17
ATOM     17  O   UNL     1      56.709  31.922 198.621  0.00  0.00    +0.000 OA
ATOM     18  C   UNL     1      56.364  32.543 199.851  0.00  0.00    +0.000 C 
ENDBRANCH   5  17
TORSDOF 4
ENDMDL
MODEL 5
REMARK VINA RESULT:    -6.426     10.651     14.144
REMARK INTER + INTRA:          -8.419
REMARK INTER:                  -7.941
REMARK INTRA:                  -0.478
REMARK UNBOUND:                -0.490
REMARK  Name = 
REMARK  6 active torsions:
REMARK  status: ('A' for Active; 'I' for Inactive)
REMARK    1  A    between atoms: C_1  and  O_2
REMARK    2  A    between atoms: O_2  and  C_3
REMARK    3  A    between atoms: C_5  and  C_6
REMARK    4  A    between atoms: C_7  and  C_8
REMARK    5  A    between atoms: C_15  and  O_16
REMARK    6  A    between atoms: O_16  and  C_17
REMARK                            x       y       z     vdW  Elec       q    Type
REMARK                         _______ _______ _______ _____ _____    ______ ____
ROOT
ATOM      1  C   UNL     1      39.841  24.002 193.352  0.00  0.00    +0.000 A 
ATOM      2  C   UNL     1      41.084  23.580 193.794  0.00  0.00    +0.000 A 
ATOM      3  C   UNL     1      41.487  22.330 193.266  0.00  0.00    +0.000 A 
ATOM      4  C   UNL     1      40.670  21.454 192.711  0.00  0.00    +0.000 A 
ATOM      5  C   UNL     1      39.432  21.915 192.358  0.00  0.00    +0.000 A 
ATOM      6  C   UNL     1      39.016  23.172 192.725  0.00  0.00    +0.000 A 
ENDROOT
BRANCH   1   8
ATOM      7  C   UNL     1      39.473  25.770 195.021  0.00  0.00    +0.000 C 
ATOM      8  O   UNL     1      39.432  25.323 193.674  0.00  0.00    +0.000 OA
ENDBRANCH   1   8
BRANCH   3   9
ATOM      9  C   UNL     1      42.961  21.972 193.346  0.00  0.00    +0.000 C 
ATOM     10  C   UNL     1      43.760  22.574 194.267  0.00  0.00    +0.000 C 
BRANCH  10  11
ATOM     11  C   UNL     1      45.235  22.216 194.346  0.00  0.00    +0.000 A 
ATOM     12  C   UNL     1      46.203  23.153 194.666  0.00  0.00    +0.000 A 
ATOM     13  C   UNL     1      47.529  22.694 194.484  0.00  0.00    +0.000 A 
ATOM     14  C   UNL     1      47.873  21.423 194.378  0.00  0.00    +0.000 A 
ATOM     15  C   UNL     1      46.862  20.537 194.130  0.00  0.00    +0.000 A 
ATOM     16  C   UNL     1      45.548  20.938 194.160  0.00  0.00    +0.000 A 
ENDBRANCH  10  11
ENDBRANCH   3   9
BRANCH   5  17
ATOM     17  O   UNL     1      38.563  21.082 191.605  0.00  0.00    +0.000 OA
ATOM     18  C   UNL     1      38.597  19.674 191.784  0.00  0.00    +0.000 C 
ENDBRANCH   5  17
TORSDOF 4
ENDMDL
